<?xml version="1.0" encoding="UTF-8"?>

<!-- generated on 12/13/18 03:11:01 by SUMO Version 0.32.0
<?xml version="1.0" encoding="UTF-8"?>

<configuration xmlns:xsi="http://www.w3.org/2001/XMLSchema-instance" xsi:noNamespaceSchemaLocation="http://sumo.dlr.de/xsd/sumoConfiguration.xsd">

    <input>
        <net-file value="./SimulationProject/Scenario_4_v3_LaneChanging//Eval/ramp.net.xml"/>
        <route-files value="./SimulationProject/Scenario_4_v3_LaneChanging//Eval/ramp.rou.xml"/>
        <additional-files value="./SimulationProject/Scenario_4_v3_LaneChanging//Eval/ramp.det.xml"/>
    </input>

    <time>
        <begin value="0"/>
    </time>

    <report>
        <verbose value="true"/>
        <no-step-log value="true"/>
    </report>

    <traci_server>
        <remote-port value="14674"/>
    </traci_server>

    <random_number>
        <seed value="76820"/>
    </random_number>

    <gui_only>
        <quit-on-end value="true"/>
        <start value="true"/>
    </gui_only>

</configuration>
-->

<detector xmlns:xsi="http://www.w3.org/2001/XMLSchema-instance" xsi:noNamespaceSchemaLocation="http://sumo.dlr.de/xsd/det_e1_file.xsd">
    <interval begin="0.00" end="60.00" id="mainline_eval_0_0" nVehContrib="0" flow="0.00" occupancy="0.00" speed="-1.00" length="-1.00" nVehEntered="0"/>
    <interval begin="0.00" end="60.00" id="mainline_eval_0_1" nVehContrib="0" flow="0.00" occupancy="0.00" speed="-1.00" length="-1.00" nVehEntered="0"/>
    <interval begin="0.00" end="60.00" id="mainline_eval_0_2" nVehContrib="0" flow="0.00" occupancy="0.00" speed="-1.00" length="-1.00" nVehEntered="0"/>
    <interval begin="0.00" end="60.00" id="mainline_eval_1_0" nVehContrib="0" flow="0.00" occupancy="0.00" speed="-1.00" length="-1.00" nVehEntered="0"/>
    <interval begin="0.00" end="60.00" id="mainline_eval_1_1" nVehContrib="0" flow="0.00" occupancy="0.00" speed="-1.00" length="-1.00" nVehEntered="0"/>
    <interval begin="0.00" end="60.00" id="mainline_eval_1_2" nVehContrib="0" flow="0.00" occupancy="0.00" speed="-1.00" length="-1.00" nVehEntered="0"/>
    <interval begin="0.00" end="60.00" id="mainline_eval_2_0" nVehContrib="0" flow="0.00" occupancy="0.00" speed="-1.00" length="-1.00" nVehEntered="0"/>
    <interval begin="0.00" end="60.00" id="mainline_eval_2_1" nVehContrib="0" flow="0.00" occupancy="0.00" speed="-1.00" length="-1.00" nVehEntered="0"/>
    <interval begin="0.00" end="60.00" id="mainline_eval_2_2" nVehContrib="0" flow="0.00" occupancy="0.00" speed="-1.00" length="-1.00" nVehEntered="0"/>
    <interval begin="0.00" end="60.00" id="mainline_eval_3_0" nVehContrib="0" flow="0.00" occupancy="0.00" speed="-1.00" length="-1.00" nVehEntered="0"/>
    <interval begin="0.00" end="60.00" id="mainline_eval_3_1" nVehContrib="0" flow="0.00" occupancy="0.00" speed="-1.00" length="-1.00" nVehEntered="0"/>
    <interval begin="0.00" end="60.00" id="mainline_eval_3_2" nVehContrib="0" flow="0.00" occupancy="0.00" speed="-1.00" length="-1.00" nVehEntered="0"/>
    <interval begin="0.00" end="60.00" id="mainline_eval_3_3" nVehContrib="0" flow="0.00" occupancy="0.00" speed="-1.00" length="-1.00" nVehEntered="0"/>
    <interval begin="0.00" end="60.00" id="mainline_eval_4_0" nVehContrib="0" flow="0.00" occupancy="0.00" speed="-1.00" length="-1.00" nVehEntered="0"/>
    <interval begin="0.00" end="60.00" id="mainline_eval_4_1" nVehContrib="0" flow="0.00" occupancy="0.00" speed="-1.00" length="-1.00" nVehEntered="0"/>
    <interval begin="0.00" end="60.00" id="mainline_eval_4_2" nVehContrib="0" flow="0.00" occupancy="0.00" speed="-1.00" length="-1.00" nVehEntered="0"/>
    <interval begin="0.00" end="60.00" id="mainline_eval_4_3" nVehContrib="0" flow="0.00" occupancy="0.00" speed="-1.00" length="-1.00" nVehEntered="0"/>
    <interval begin="0.00" end="60.00" id="mainline_eval_5_0" nVehContrib="0" flow="0.00" occupancy="0.00" speed="-1.00" length="-1.00" nVehEntered="0"/>
    <interval begin="0.00" end="60.00" id="mainline_eval_5_1" nVehContrib="0" flow="0.00" occupancy="0.00" speed="-1.00" length="-1.00" nVehEntered="0"/>
    <interval begin="0.00" end="60.00" id="mainline_eval_5_2" nVehContrib="0" flow="0.00" occupancy="0.00" speed="-1.00" length="-1.00" nVehEntered="0"/>
    <interval begin="0.00" end="60.00" id="mainline_eval_6_0" nVehContrib="0" flow="0.00" occupancy="0.00" speed="-1.00" length="-1.00" nVehEntered="0"/>
    <interval begin="0.00" end="60.00" id="mainline_eval_6_1" nVehContrib="0" flow="0.00" occupancy="0.00" speed="-1.00" length="-1.00" nVehEntered="0"/>
    <interval begin="0.00" end="60.00" id="mainline_eval_6_2" nVehContrib="0" flow="0.00" occupancy="0.00" speed="-1.00" length="-1.00" nVehEntered="0"/>
    <interval begin="60.00" end="120.00" id="mainline_eval_0_0" nVehContrib="9" flow="540.00" occupancy="3.98" speed="18.93" length="5.00" nVehEntered="9"/>
    <interval begin="60.00" end="120.00" id="mainline_eval_0_1" nVehContrib="17" flow="1020.00" occupancy="6.75" speed="21.15" length="5.00" nVehEntered="17"/>
    <interval begin="60.00" end="120.00" id="mainline_eval_0_2" nVehContrib="20" flow="1200.00" occupancy="7.41" speed="22.53" length="5.00" nVehEntered="20"/>
    <interval begin="60.00" end="120.00" id="mainline_eval_1_0" nVehContrib="8" flow="480.00" occupancy="3.40" speed="19.78" length="5.00" nVehEntered="8"/>
    <interval begin="60.00" end="120.00" id="mainline_eval_1_1" nVehContrib="12" flow="720.00" occupancy="4.71" speed="21.40" length="5.00" nVehEntered="12"/>
    <interval begin="60.00" end="120.00" id="mainline_eval_1_2" nVehContrib="13" flow="780.00" occupancy="4.82" speed="22.47" length="5.00" nVehEntered="13"/>
    <interval begin="60.00" end="120.00" id="mainline_eval_2_0" nVehContrib="5" flow="300.00" occupancy="1.86" speed="22.56" length="5.00" nVehEntered="5"/>
    <interval begin="60.00" end="120.00" id="mainline_eval_2_1" nVehContrib="3" flow="180.00" occupancy="1.47" speed="22.37" length="5.00" nVehEntered="4"/>
    <interval begin="60.00" end="120.00" id="mainline_eval_2_2" nVehContrib="2" flow="120.00" occupancy="0.71" speed="23.63" length="5.00" nVehEntered="2"/>
    <interval begin="60.00" end="120.00" id="mainline_eval_3_0" nVehContrib="0" flow="0.00" occupancy="0.00" speed="-1.00" length="-1.00" nVehEntered="0"/>
    <interval begin="60.00" end="120.00" id="mainline_eval_3_1" nVehContrib="4" flow="240.00" occupancy="1.45" speed="23.10" length="5.00" nVehEntered="4"/>
    <interval begin="60.00" end="120.00" id="mainline_eval_3_2" nVehContrib="3" flow="180.00" occupancy="1.09" speed="23.00" length="5.00" nVehEntered="3"/>
    <interval begin="60.00" end="120.00" id="mainline_eval_3_3" nVehContrib="0" flow="0.00" occupancy="0.00" speed="-1.00" length="-1.00" nVehEntered="0"/>
    <interval begin="60.00" end="120.00" id="mainline_eval_4_0" nVehContrib="0" flow="0.00" occupancy="0.00" speed="-1.00" length="-1.00" nVehEntered="0"/>
    <interval begin="60.00" end="120.00" id="mainline_eval_4_1" nVehContrib="4" flow="240.00" occupancy="1.45" speed="23.05" length="5.00" nVehEntered="4"/>
    <interval begin="60.00" end="120.00" id="mainline_eval_4_2" nVehContrib="2" flow="120.00" occupancy="1.08" speed="23.41" length="5.00" nVehEntered="3"/>
    <interval begin="60.00" end="120.00" id="mainline_eval_4_3" nVehContrib="0" flow="0.00" occupancy="0.00" speed="-1.00" length="-1.00" nVehEntered="0"/>
    <interval begin="60.00" end="120.00" id="mainline_eval_5_0" nVehContrib="2" flow="120.00" occupancy="0.69" speed="24.26" length="5.00" nVehEntered="2"/>
    <interval begin="60.00" end="120.00" id="mainline_eval_5_1" nVehContrib="0" flow="0.00" occupancy="0.00" speed="-1.00" length="-1.00" nVehEntered="0"/>
    <interval begin="60.00" end="120.00" id="mainline_eval_5_2" nVehContrib="0" flow="0.00" occupancy="0.00" speed="-1.00" length="-1.00" nVehEntered="0"/>
    <interval begin="60.00" end="120.00" id="mainline_eval_6_0" nVehContrib="1" flow="60.00" occupancy="0.34" speed="24.65" length="5.00" nVehEntered="1"/>
    <interval begin="60.00" end="120.00" id="mainline_eval_6_1" nVehContrib="0" flow="0.00" occupancy="0.00" speed="-1.00" length="-1.00" nVehEntered="0"/>
    <interval begin="60.00" end="120.00" id="mainline_eval_6_2" nVehContrib="0" flow="0.00" occupancy="0.00" speed="-1.00" length="-1.00" nVehEntered="0"/>
    <interval begin="120.00" end="180.00" id="mainline_eval_0_0" nVehContrib="17" flow="1020.00" occupancy="8.01" speed="17.85" length="5.00" nVehEntered="17"/>
    <interval begin="120.00" end="180.00" id="mainline_eval_0_1" nVehContrib="31" flow="1860.00" occupancy="13.00" speed="19.92" length="5.00" nVehEntered="31"/>
    <interval begin="120.00" end="180.00" id="mainline_eval_0_2" nVehContrib="32" flow="1920.00" occupancy="12.36" speed="21.61" length="5.00" nVehEntered="32"/>
    <interval begin="120.00" end="180.00" id="mainline_eval_1_0" nVehContrib="12" flow="720.00" occupancy="6.21" speed="17.00" length="5.00" nVehEntered="13"/>
    <interval begin="120.00" end="180.00" id="mainline_eval_1_1" nVehContrib="25" flow="1500.00" occupancy="10.39" speed="20.08" length="5.00" nVehEntered="25"/>
    <interval begin="120.00" end="180.00" id="mainline_eval_1_2" nVehContrib="31" flow="1860.00" occupancy="12.23" speed="21.18" length="5.00" nVehEntered="31"/>
    <interval begin="120.00" end="180.00" id="mainline_eval_2_0" nVehContrib="11" flow="660.00" occupancy="5.07" speed="18.20" length="5.00" nVehEntered="11"/>
    <interval begin="120.00" end="180.00" id="mainline_eval_2_1" nVehContrib="23" flow="1380.00" occupancy="8.92" speed="20.75" length="5.00" nVehEntered="22"/>
    <interval begin="120.00" end="180.00" id="mainline_eval_2_2" nVehContrib="27" flow="1620.00" occupancy="10.11" speed="22.27" length="5.00" nVehEntered="27"/>
    <interval begin="120.00" end="180.00" id="mainline_eval_3_0" nVehContrib="0" flow="0.00" occupancy="0.00" speed="-1.00" length="-1.00" nVehEntered="0"/>
    <interval begin="120.00" end="180.00" id="mainline_eval_3_1" nVehContrib="13" flow="780.00" occupancy="6.62" speed="16.93" length="5.00" nVehEntered="13"/>
    <interval begin="120.00" end="180.00" id="mainline_eval_3_2" nVehContrib="18" flow="1080.00" occupancy="7.74" speed="20.32" length="5.00" nVehEntered="19"/>
    <interval begin="120.00" end="180.00" id="mainline_eval_3_3" nVehContrib="23" flow="1380.00" occupancy="8.58" speed="22.36" length="5.00" nVehEntered="23"/>
    <interval begin="120.00" end="180.00" id="mainline_eval_4_0" nVehContrib="0" flow="0.00" occupancy="0.00" speed="-1.00" length="-1.00" nVehEntered="0"/>
    <interval begin="120.00" end="180.00" id="mainline_eval_4_1" nVehContrib="13" flow="780.00" occupancy="6.10" speed="17.92" length="5.00" nVehEntered="13"/>
    <interval begin="120.00" end="180.00" id="mainline_eval_4_2" nVehContrib="18" flow="1080.00" occupancy="7.13" speed="20.13" length="5.00" nVehEntered="17"/>
    <interval begin="120.00" end="180.00" id="mainline_eval_4_3" nVehContrib="23" flow="1380.00" occupancy="8.61" speed="22.29" length="5.00" nVehEntered="23"/>
    <interval begin="120.00" end="180.00" id="mainline_eval_5_0" nVehContrib="12" flow="720.00" occupancy="5.04" speed="20.00" length="5.00" nVehEntered="12"/>
    <interval begin="120.00" end="180.00" id="mainline_eval_5_1" nVehContrib="15" flow="900.00" occupancy="6.12" speed="20.61" length="5.00" nVehEntered="15"/>
    <interval begin="120.00" end="180.00" id="mainline_eval_5_2" nVehContrib="18" flow="1080.00" occupancy="6.67" speed="22.48" length="5.00" nVehEntered="18"/>
    <interval begin="120.00" end="180.00" id="mainline_eval_6_0" nVehContrib="12" flow="720.00" occupancy="5.29" speed="20.23" length="5.00" nVehEntered="13"/>
    <interval begin="120.00" end="180.00" id="mainline_eval_6_1" nVehContrib="14" flow="840.00" occupancy="5.67" speed="20.77" length="5.00" nVehEntered="14"/>
    <interval begin="120.00" end="180.00" id="mainline_eval_6_2" nVehContrib="17" flow="1020.00" occupancy="6.34" speed="22.36" length="5.00" nVehEntered="17"/>
    <interval begin="180.00" end="240.00" id="mainline_eval_0_0" nVehContrib="17" flow="1020.00" occupancy="8.27" speed="17.22" length="5.00" nVehEntered="17"/>
    <interval begin="180.00" end="240.00" id="mainline_eval_0_1" nVehContrib="21" flow="1260.00" occupancy="9.67" speed="18.24" length="5.00" nVehEntered="21"/>
    <interval begin="180.00" end="240.00" id="mainline_eval_0_2" nVehContrib="26" flow="1560.00" occupancy="11.70" speed="18.72" length="5.00" nVehEntered="26"/>
    <interval begin="180.00" end="240.00" id="mainline_eval_1_0" nVehContrib="17" flow="1020.00" occupancy="7.54" speed="18.15" length="5.00" nVehEntered="16"/>
    <interval begin="180.00" end="240.00" id="mainline_eval_1_1" nVehContrib="20" flow="1200.00" occupancy="8.89" speed="18.87" length="5.00" nVehEntered="20"/>
    <interval begin="180.00" end="240.00" id="mainline_eval_1_2" nVehContrib="24" flow="1440.00" occupancy="9.74" speed="20.71" length="5.00" nVehEntered="24"/>
    <interval begin="180.00" end="240.00" id="mainline_eval_2_0" nVehContrib="15" flow="900.00" occupancy="6.90" speed="18.17" length="5.00" nVehEntered="15"/>
    <interval begin="180.00" end="240.00" id="mainline_eval_2_1" nVehContrib="28" flow="1680.00" occupancy="11.83" speed="19.78" length="5.00" nVehEntered="28"/>
    <interval begin="180.00" end="240.00" id="mainline_eval_2_2" nVehContrib="31" flow="1860.00" occupancy="12.03" speed="21.52" length="5.00" nVehEntered="31"/>
    <interval begin="180.00" end="240.00" id="mainline_eval_3_0" nVehContrib="11" flow="660.00" occupancy="7.60" speed="12.49" length="5.00" nVehEntered="11"/>
    <interval begin="180.00" end="240.00" id="mainline_eval_3_1" nVehContrib="21" flow="1260.00" occupancy="20.09" speed="11.36" length="5.00" nVehEntered="22"/>
    <interval begin="180.00" end="240.00" id="mainline_eval_3_2" nVehContrib="31" flow="1860.00" occupancy="13.79" speed="19.04" length="5.00" nVehEntered="30"/>
    <interval begin="180.00" end="240.00" id="mainline_eval_3_3" nVehContrib="31" flow="1860.00" occupancy="11.95" speed="21.75" length="5.00" nVehEntered="32"/>
    <interval begin="180.00" end="240.00" id="mainline_eval_4_0" nVehContrib="7" flow="420.00" occupancy="4.80" speed="13.03" length="5.00" nVehEntered="7"/>
    <interval begin="180.00" end="240.00" id="mainline_eval_4_1" nVehContrib="22" flow="1320.00" occupancy="22.62" speed="10.57" length="5.00" nVehEntered="22"/>
    <interval begin="180.00" end="240.00" id="mainline_eval_4_2" nVehContrib="31" flow="1860.00" occupancy="15.38" speed="18.52" length="5.00" nVehEntered="31"/>
    <interval begin="180.00" end="240.00" id="mainline_eval_4_3" nVehContrib="31" flow="1860.00" occupancy="12.76" speed="21.01" length="5.00" nVehEntered="31"/>
    <interval begin="180.00" end="240.00" id="mainline_eval_5_0" nVehContrib="24" flow="1440.00" occupancy="11.50" speed="17.59" length="5.00" nVehEntered="24"/>
    <interval begin="180.00" end="240.00" id="mainline_eval_5_1" nVehContrib="31" flow="1860.00" occupancy="12.96" speed="19.98" length="5.00" nVehEntered="31"/>
    <interval begin="180.00" end="240.00" id="mainline_eval_5_2" nVehContrib="32" flow="1920.00" occupancy="12.72" speed="21.19" length="5.00" nVehEntered="33"/>
    <interval begin="180.00" end="240.00" id="mainline_eval_6_0" nVehContrib="24" flow="1440.00" occupancy="11.27" speed="17.57" length="5.00" nVehEntered="24"/>
    <interval begin="180.00" end="240.00" id="mainline_eval_6_1" nVehContrib="28" flow="1680.00" occupancy="11.81" speed="20.20" length="5.00" nVehEntered="29"/>
    <interval begin="180.00" end="240.00" id="mainline_eval_6_2" nVehContrib="31" flow="1860.00" occupancy="11.98" speed="21.59" length="5.00" nVehEntered="31"/>
    <interval begin="240.00" end="300.00" id="mainline_eval_0_0" nVehContrib="25" flow="1500.00" occupancy="12.98" speed="16.38" length="5.00" nVehEntered="26"/>
    <interval begin="240.00" end="300.00" id="mainline_eval_0_1" nVehContrib="33" flow="1980.00" occupancy="15.46" speed="17.87" length="5.00" nVehEntered="33"/>
    <interval begin="240.00" end="300.00" id="mainline_eval_0_2" nVehContrib="33" flow="1980.00" occupancy="15.56" speed="17.76" length="5.00" nVehEntered="33"/>
    <interval begin="240.00" end="300.00" id="mainline_eval_1_0" nVehContrib="25" flow="1500.00" occupancy="12.93" speed="16.20" length="5.00" nVehEntered="25"/>
    <interval begin="240.00" end="300.00" id="mainline_eval_1_1" nVehContrib="27" flow="1620.00" occupancy="13.38" speed="17.47" length="5.00" nVehEntered="28"/>
    <interval begin="240.00" end="300.00" id="mainline_eval_1_2" nVehContrib="36" flow="2160.00" occupancy="17.39" speed="17.81" length="5.00" nVehEntered="37"/>
    <interval begin="240.00" end="300.00" id="mainline_eval_2_0" nVehContrib="18" flow="1080.00" occupancy="9.25" speed="16.32" length="5.00" nVehEntered="18"/>
    <interval begin="240.00" end="300.00" id="mainline_eval_2_1" nVehContrib="18" flow="1080.00" occupancy="8.36" speed="17.99" length="5.00" nVehEntered="18"/>
    <interval begin="240.00" end="300.00" id="mainline_eval_2_2" nVehContrib="27" flow="1620.00" occupancy="11.79" speed="19.28" length="5.00" nVehEntered="28"/>
    <interval begin="240.00" end="300.00" id="mainline_eval_3_0" nVehContrib="0" flow="0.00" occupancy="0.00" speed="-1.00" length="-1.00" nVehEntered="0"/>
    <interval begin="240.00" end="300.00" id="mainline_eval_3_1" nVehContrib="22" flow="1320.00" occupancy="12.92" speed="14.31" length="5.00" nVehEntered="21"/>
    <interval begin="240.00" end="300.00" id="mainline_eval_3_2" nVehContrib="15" flow="900.00" occupancy="6.68" speed="18.80" length="5.00" nVehEntered="15"/>
    <interval begin="240.00" end="300.00" id="mainline_eval_3_3" nVehContrib="24" flow="1440.00" occupancy="9.87" speed="20.26" length="5.00" nVehEntered="23"/>
    <interval begin="240.00" end="300.00" id="mainline_eval_4_0" nVehContrib="0" flow="0.00" occupancy="0.00" speed="-1.00" length="-1.00" nVehEntered="0"/>
    <interval begin="240.00" end="300.00" id="mainline_eval_4_1" nVehContrib="20" flow="1200.00" occupancy="10.84" speed="15.63" length="5.00" nVehEntered="20"/>
    <interval begin="240.00" end="300.00" id="mainline_eval_4_2" nVehContrib="17" flow="1020.00" occupancy="8.12" speed="17.82" length="5.00" nVehEntered="17"/>
    <interval begin="240.00" end="300.00" id="mainline_eval_4_3" nVehContrib="23" flow="1380.00" occupancy="9.33" speed="20.62" length="5.00" nVehEntered="23"/>
    <interval begin="240.00" end="300.00" id="mainline_eval_5_0" nVehContrib="23" flow="1380.00" occupancy="10.94" speed="17.62" length="5.00" nVehEntered="23"/>
    <interval begin="240.00" end="300.00" id="mainline_eval_5_1" nVehContrib="22" flow="1320.00" occupancy="10.12" speed="18.23" length="5.00" nVehEntered="22"/>
    <interval begin="240.00" end="300.00" id="mainline_eval_5_2" nVehContrib="26" flow="1560.00" occupancy="10.60" speed="20.30" length="5.00" nVehEntered="25"/>
    <interval begin="240.00" end="300.00" id="mainline_eval_6_0" nVehContrib="22" flow="1320.00" occupancy="10.41" speed="17.67" length="5.00" nVehEntered="21"/>
    <interval begin="240.00" end="300.00" id="mainline_eval_6_1" nVehContrib="22" flow="1320.00" occupancy="10.02" speed="18.11" length="5.00" nVehEntered="22"/>
    <interval begin="240.00" end="300.00" id="mainline_eval_6_2" nVehContrib="25" flow="1500.00" occupancy="10.26" speed="20.40" length="5.00" nVehEntered="25"/>
    <interval begin="300.00" end="360.00" id="mainline_eval_0_0" nVehContrib="21" flow="1260.00" occupancy="9.77" speed="17.75" length="5.00" nVehEntered="20"/>
    <interval begin="300.00" end="360.00" id="mainline_eval_0_1" nVehContrib="24" flow="1440.00" occupancy="10.43" speed="20.06" length="5.00" nVehEntered="25"/>
    <interval begin="300.00" end="360.00" id="mainline_eval_0_2" nVehContrib="31" flow="1860.00" occupancy="12.50" speed="20.70" length="5.00" nVehEntered="31"/>
    <interval begin="300.00" end="360.00" id="mainline_eval_1_0" nVehContrib="23" flow="1380.00" occupancy="10.71" speed="17.97" length="5.00" nVehEntered="23"/>
    <interval begin="300.00" end="360.00" id="mainline_eval_1_1" nVehContrib="25" flow="1500.00" occupancy="10.52" speed="19.08" length="5.00" nVehEntered="24"/>
    <interval begin="300.00" end="360.00" id="mainline_eval_1_2" nVehContrib="31" flow="1860.00" occupancy="13.04" speed="19.25" length="5.00" nVehEntered="30"/>
    <interval begin="300.00" end="360.00" id="mainline_eval_2_0" nVehContrib="31" flow="1860.00" occupancy="15.46" speed="16.79" length="5.00" nVehEntered="31"/>
    <interval begin="300.00" end="360.00" id="mainline_eval_2_1" nVehContrib="30" flow="1800.00" occupancy="13.92" speed="18.03" length="5.00" nVehEntered="30"/>
    <interval begin="300.00" end="360.00" id="mainline_eval_2_2" nVehContrib="40" flow="2400.00" occupancy="18.30" speed="18.29" length="5.00" nVehEntered="39"/>
    <interval begin="300.00" end="360.00" id="mainline_eval_3_0" nVehContrib="3" flow="180.00" occupancy="1.93" speed="12.98" length="5.00" nVehEntered="4"/>
    <interval begin="300.00" end="360.00" id="mainline_eval_3_1" nVehContrib="31" flow="1860.00" occupancy="26.10" speed="11.91" length="5.00" nVehEntered="31"/>
    <interval begin="300.00" end="360.00" id="mainline_eval_3_2" nVehContrib="36" flow="2160.00" occupancy="16.34" speed="18.44" length="5.00" nVehEntered="36"/>
    <interval begin="300.00" end="360.00" id="mainline_eval_3_3" nVehContrib="39" flow="2340.00" occupancy="16.97" speed="19.26" length="5.00" nVehEntered="39"/>
    <interval begin="300.00" end="360.00" id="mainline_eval_4_0" nVehContrib="1" flow="60.00" occupancy="0.48" speed="17.24" length="5.00" nVehEntered="1"/>
    <interval begin="300.00" end="360.00" id="mainline_eval_4_1" nVehContrib="33" flow="1980.00" occupancy="20.52" speed="14.11" length="5.00" nVehEntered="34"/>
    <interval begin="300.00" end="360.00" id="mainline_eval_4_2" nVehContrib="35" flow="2100.00" occupancy="16.24" speed="18.08" length="5.00" nVehEntered="35"/>
    <interval begin="300.00" end="360.00" id="mainline_eval_4_3" nVehContrib="39" flow="2340.00" occupancy="17.19" speed="18.96" length="5.00" nVehEntered="39"/>
    <interval begin="300.00" end="360.00" id="mainline_eval_5_0" nVehContrib="30" flow="1800.00" occupancy="14.99" speed="16.75" length="5.00" nVehEntered="30"/>
    <interval begin="300.00" end="360.00" id="mainline_eval_5_1" nVehContrib="30" flow="1800.00" occupancy="14.10" speed="17.76" length="5.00" nVehEntered="30"/>
    <interval begin="300.00" end="360.00" id="mainline_eval_5_2" nVehContrib="33" flow="1980.00" occupancy="14.22" speed="19.40" length="5.00" nVehEntered="33"/>
    <interval begin="300.00" end="360.00" id="mainline_eval_6_0" nVehContrib="29" flow="1740.00" occupancy="14.85" speed="16.35" length="5.00" nVehEntered="29"/>
    <interval begin="300.00" end="360.00" id="mainline_eval_6_1" nVehContrib="30" flow="1800.00" occupancy="14.25" speed="17.66" length="5.00" nVehEntered="30"/>
    <interval begin="300.00" end="360.00" id="mainline_eval_6_2" nVehContrib="33" flow="1980.00" occupancy="13.80" speed="19.98" length="5.00" nVehEntered="33"/>
    <interval begin="360.00" end="420.00" id="mainline_eval_0_0" nVehContrib="24" flow="1440.00" occupancy="11.86" speed="17.03" length="5.00" nVehEntered="24"/>
    <interval begin="360.00" end="420.00" id="mainline_eval_0_1" nVehContrib="28" flow="1680.00" occupancy="11.25" speed="20.01" length="5.00" nVehEntered="27"/>
    <interval begin="360.00" end="420.00" id="mainline_eval_0_2" nVehContrib="31" flow="1860.00" occupancy="12.17" speed="21.29" length="5.00" nVehEntered="31"/>
    <interval begin="360.00" end="420.00" id="mainline_eval_1_0" nVehContrib="19" flow="1140.00" occupancy="9.77" speed="16.47" length="5.00" nVehEntered="19"/>
    <interval begin="360.00" end="420.00" id="mainline_eval_1_1" nVehContrib="28" flow="1680.00" occupancy="12.09" speed="19.38" length="5.00" nVehEntered="28"/>
    <interval begin="360.00" end="420.00" id="mainline_eval_1_2" nVehContrib="33" flow="1980.00" occupancy="13.19" speed="20.88" length="5.00" nVehEntered="33"/>
    <interval begin="360.00" end="420.00" id="mainline_eval_2_0" nVehContrib="16" flow="960.00" occupancy="7.98" speed="16.91" length="5.00" nVehEntered="16"/>
    <interval begin="360.00" end="420.00" id="mainline_eval_2_1" nVehContrib="29" flow="1740.00" occupancy="12.84" speed="18.92" length="5.00" nVehEntered="29"/>
    <interval begin="360.00" end="420.00" id="mainline_eval_2_2" nVehContrib="29" flow="1740.00" occupancy="11.48" speed="21.09" length="5.00" nVehEntered="29"/>
    <interval begin="360.00" end="420.00" id="mainline_eval_3_0" nVehContrib="8" flow="480.00" occupancy="7.47" speed="10.41" length="5.00" nVehEntered="9"/>
    <interval begin="360.00" end="420.00" id="mainline_eval_3_1" nVehContrib="24" flow="1440.00" occupancy="19.98" speed="11.62" length="5.00" nVehEntered="25"/>
    <interval begin="360.00" end="420.00" id="mainline_eval_3_2" nVehContrib="28" flow="1680.00" occupancy="16.73" speed="17.49" length="5.00" nVehEntered="29"/>
    <interval begin="360.00" end="420.00" id="mainline_eval_3_3" nVehContrib="33" flow="1980.00" occupancy="13.54" speed="20.37" length="5.00" nVehEntered="33"/>
    <interval begin="360.00" end="420.00" id="mainline_eval_4_0" nVehContrib="0" flow="0.00" occupancy="0.00" speed="-1.00" length="-1.00" nVehEntered="0"/>
    <interval begin="360.00" end="420.00" id="mainline_eval_4_1" nVehContrib="28" flow="1680.00" occupancy="18.05" speed="14.34" length="5.00" nVehEntered="28"/>
    <interval begin="360.00" end="420.00" id="mainline_eval_4_2" nVehContrib="29" flow="1740.00" occupancy="13.57" speed="18.08" length="5.00" nVehEntered="29"/>
    <interval begin="360.00" end="420.00" id="mainline_eval_4_3" nVehContrib="35" flow="2100.00" occupancy="14.43" speed="20.27" length="5.00" nVehEntered="35"/>
    <interval begin="360.00" end="420.00" id="mainline_eval_5_0" nVehContrib="30" flow="1800.00" occupancy="14.65" speed="17.20" length="5.00" nVehEntered="30"/>
    <interval begin="360.00" end="420.00" id="mainline_eval_5_1" nVehContrib="27" flow="1620.00" occupancy="11.46" speed="19.68" length="5.00" nVehEntered="27"/>
    <interval begin="360.00" end="420.00" id="mainline_eval_5_2" nVehContrib="36" flow="2160.00" occupancy="14.95" speed="20.11" length="5.00" nVehEntered="36"/>
    <interval begin="360.00" end="420.00" id="mainline_eval_6_0" nVehContrib="31" flow="1860.00" occupancy="14.96" speed="17.36" length="5.00" nVehEntered="31"/>
    <interval begin="360.00" end="420.00" id="mainline_eval_6_1" nVehContrib="29" flow="1740.00" occupancy="12.11" speed="19.88" length="5.00" nVehEntered="28"/>
    <interval begin="360.00" end="420.00" id="mainline_eval_6_2" nVehContrib="36" flow="2160.00" occupancy="14.72" speed="20.40" length="5.00" nVehEntered="36"/>
    <interval begin="420.00" end="480.00" id="mainline_eval_0_0" nVehContrib="16" flow="960.00" occupancy="6.93" speed="19.27" length="5.00" nVehEntered="16"/>
    <interval begin="420.00" end="480.00" id="mainline_eval_0_1" nVehContrib="25" flow="1500.00" occupancy="10.40" speed="20.05" length="5.00" nVehEntered="25"/>
    <interval begin="420.00" end="480.00" id="mainline_eval_0_2" nVehContrib="30" flow="1800.00" occupancy="11.92" speed="21.06" length="5.00" nVehEntered="30"/>
    <interval begin="420.00" end="480.00" id="mainline_eval_1_0" nVehContrib="22" flow="1320.00" occupancy="10.41" speed="17.80" length="5.00" nVehEntered="22"/>
    <interval begin="420.00" end="480.00" id="mainline_eval_1_1" nVehContrib="27" flow="1620.00" occupancy="11.33" speed="19.87" length="5.00" nVehEntered="27"/>
    <interval begin="420.00" end="480.00" id="mainline_eval_1_2" nVehContrib="32" flow="1920.00" occupancy="12.61" speed="21.20" length="5.00" nVehEntered="32"/>
    <interval begin="420.00" end="480.00" id="mainline_eval_2_0" nVehContrib="20" flow="1200.00" occupancy="10.02" speed="16.85" length="5.00" nVehEntered="20"/>
    <interval begin="420.00" end="480.00" id="mainline_eval_2_1" nVehContrib="29" flow="1740.00" occupancy="12.36" speed="19.66" length="5.00" nVehEntered="29"/>
    <interval begin="420.00" end="480.00" id="mainline_eval_2_2" nVehContrib="33" flow="1980.00" occupancy="12.82" speed="21.49" length="5.00" nVehEntered="33"/>
    <interval begin="420.00" end="480.00" id="mainline_eval_3_0" nVehContrib="9" flow="540.00" occupancy="10.89" speed="7.43" length="5.00" nVehEntered="8"/>
    <interval begin="420.00" end="480.00" id="mainline_eval_3_1" nVehContrib="15" flow="900.00" occupancy="25.01" speed="9.52" length="5.00" nVehEntered="17"/>
    <interval begin="420.00" end="480.00" id="mainline_eval_3_2" nVehContrib="35" flow="2100.00" occupancy="17.94" speed="19.12" length="5.00" nVehEntered="34"/>
    <interval begin="420.00" end="480.00" id="mainline_eval_3_3" nVehContrib="34" flow="2040.00" occupancy="13.22" speed="21.47" length="5.00" nVehEntered="34"/>
    <interval begin="420.00" end="480.00" id="mainline_eval_4_0" nVehContrib="2" flow="120.00" occupancy="1.37" speed="13.07" length="5.00" nVehEntered="3"/>
    <interval begin="420.00" end="480.00" id="mainline_eval_4_1" nVehContrib="24" flow="1440.00" occupancy="22.94" speed="9.17" length="5.00" nVehEntered="23"/>
    <interval begin="420.00" end="480.00" id="mainline_eval_4_2" nVehContrib="35" flow="2100.00" occupancy="15.27" speed="19.21" length="5.00" nVehEntered="35"/>
    <interval begin="420.00" end="480.00" id="mainline_eval_4_3" nVehContrib="34" flow="2040.00" occupancy="13.19" speed="21.52" length="5.00" nVehEntered="34"/>
    <interval begin="420.00" end="480.00" id="mainline_eval_5_0" nVehContrib="26" flow="1560.00" occupancy="12.28" speed="17.94" length="5.00" nVehEntered="26"/>
    <interval begin="420.00" end="480.00" id="mainline_eval_5_1" nVehContrib="35" flow="2100.00" occupancy="14.82" speed="19.99" length="5.00" nVehEntered="36"/>