<?xml version="1.0" encoding="UTF-8"?>

<!-- generated on 12/13/18 03:11:01 by SUMO Version 0.32.0
<?xml version="1.0" encoding="UTF-8"?>

<configuration xmlns:xsi="http://www.w3.org/2001/XMLSchema-instance" xsi:noNamespaceSchemaLocation="http://sumo.dlr.de/xsd/sumoConfiguration.xsd">

    <input>
        <net-file value="./SimulationProject/Scenario_4_v3_LaneChanging//Eval/ramp.net.xml"/>
        <route-files value="./SimulationProject/Scenario_4_v3_LaneChanging//Eval/ramp.rou.xml"/>
        <additional-files value="./SimulationProject/Scenario_4_v3_LaneChanging//Eval/ramp.det.xml"/>
    </input>

    <time>
        <begin value="0"/>
    </time>

    <report>
        <verbose value="true"/>
        <no-step-log value="true"/>
    </report>

    <traci_server>
        <remote-port value="14674"/>
    </traci_server>

    <random_number>
        <seed value="76820"/>
    </random_number>

    <gui_only>
        <quit-on-end value="true"/>
        <start value="true"/>
    </gui_only>

</configuration>
-->

<detector xmlns:xsi="http://www.w3.org/2001/XMLSchema-instance" xsi:noNamespaceSchemaLocation="http://sumo.dlr.de/xsd/det_e1_file.xsd">
    <interval begin="0.00" end="60.00" id="ramp_eval_0_0" nVehContrib="1" flow="60.00" occupancy="0.74" speed="11.23" length="5.00" nVehEntered="1"/>
    <interval begin="0.00" end="60.00" id="ramp_eval_2_0" nVehContrib="0" flow="0.00" occupancy="0.00" speed="-1.00" length="-1.00" nVehEntered="0"/>
   <interval begin="0.00" end="60.00" id="ramp_eval_1_0" sampledSeconds="152.49" nVehEntered="7" nVehLeft="0" nVehSeen="7" meanSpeed="10.14" meanTimeLoss="1.44" meanOccupancy="1.09" maxOccupancy="2.97" meanMaxJamLengthInVehicles="0.00" meanMaxJamLengthInMeters="0.00" maxJamLengthInVehicles="0" maxJamLengthInMeters="0.00" jamLengthInVehiclesSum="0" jamLengthInMetersSum="0.00" meanHaltingDuration="0.00" maxHaltingDuration="0.00" haltingDurationSum="0.00" meanIntervalHaltingDuration="0.00" maxIntervalHaltingDuration="0.00" intervalHaltingDurationSum="0.00" startedHalts="0.00" meanVehicleNumber="2.58" maxVehicleNumber="7" />
    <interval begin="60.00" end="120.00" id="ramp_eval_0_0" nVehContrib="12" flow="720.00" occupancy="10.54" speed="9.55" length="5.00" nVehEntered="12"/>
    <interval begin="60.00" end="120.00" id="ramp_eval_2_0" nVehContrib="1" flow="60.00" occupancy="0.74" speed="11.19" length="5.00" nVehEntered="1"/>
   <interval begin="60.00" end="120.00" id="ramp_eval_1_0" sampledSeconds="833.78" nVehEntered="13" nVehLeft="0" nVehSeen="20" meanSpeed="9.67" meanTimeLoss="4.61" meanOccupancy="5.90" maxOccupancy="8.47" meanMaxJamLengthInVehicles="0.00" meanMaxJamLengthInMeters="0.00" maxJamLengthInVehicles="0" maxJamLengthInMeters="0.00" jamLengthInVehiclesSum="0" jamLengthInMetersSum="0.00" meanHaltingDuration="0.00" maxHaltingDuration="0.00" haltingDurationSum="0.00" meanIntervalHaltingDuration="0.00" maxIntervalHaltingDuration="0.00" intervalHaltingDurationSum="0.00" startedHalts="0.00" meanVehicleNumber="13.97" maxVehicleNumber="20" />
    <interval begin="120.00" end="180.00" id="ramp_eval_0_0" nVehContrib="13" flow="780.00" occupancy="10.53" speed="10.32" length="5.00" nVehEntered="13"/>
    <interval begin="120.00" end="180.00" id="ramp_eval_2_0" nVehContrib="6" flow="360.00" occupancy="5.53" speed="9.05" length="5.00" nVehEntered="6"/>
   <interval begin="120.00" end="180.00" id="ramp_eval_1_0" sampledSeconds="1400.25" nVehEntered="12" nVehLeft="6" nVehSeen="32" meanSpeed="9.73" meanTimeLoss="5.19" meanOccupancy="9.88" maxOccupancy="11.44" meanMaxJamLengthInVehicles="0.00" meanMaxJamLengthInMeters="0.00" maxJamLengthInVehicles="0" maxJamLengthInMeters="0.00" jamLengthInVehiclesSum="0" jamLengthInMetersSum="0.00" meanHaltingDuration="0.00" maxHaltingDuration="0.00" haltingDurationSum="0.00" meanIntervalHaltingDuration="0.00" maxIntervalHaltingDuration="0.00" intervalHaltingDurationSum="0.00" startedHalts="0.00" meanVehicleNumber="23.52" maxVehicleNumber="28" />
    <interval begin="180.00" end="240.00" id="ramp_eval_0_0" nVehContrib="8" flow="480.00" occupancy="6.89" speed="9.78" length="5.00" nVehEntered="8"/>
    <interval begin="180.00" end="240.00" id="ramp_eval_2_0" nVehContrib="15" flow="900.00" occupancy="13.21" speed="9.52" length="5.00" nVehEntered="15"/>
   <interval begin="180.00" end="240.00" id="ramp_eval_1_0" sampledSeconds="1383.69" nVehEntered="10" nVehLeft="14" nVehSeen="36" meanSpeed="9.64" meanTimeLoss="5.50" meanOccupancy="9.71" maxOccupancy="11.77" meanMaxJamLengthInVehicles="0.00" meanMaxJamLengthInMeters="0.00" maxJamLengthInVehicles="0" maxJamLengthInMeters="0.00" jamLengthInVehiclesSum="0" jamLengthInMetersSum="0.00" meanHaltingDuration="0.00" maxHaltingDuration="0.00" haltingDurationSum="0.00" meanIntervalHaltingDuration="0.00" maxIntervalHaltingDuration="0.00" intervalHaltingDurationSum="0.00" startedHalts="0.00" meanVehicleNumber="23.27" maxVehicleNumber="28" />
    <interval begin="240.00" end="300.00" id="ramp_eval_0_0" nVehContrib="14" flow="840.00" occupancy="14.72" speed="8.21" length="5.00" nVehEntered="15"/>
    <interval begin="240.00" end="300.00" id="ramp_eval_2_0" nVehContrib="12" flow="720.00" occupancy="10.50" speed="9.56" length="5.00" nVehEntered="12"/>
   <interval begin="240.00" end="300.00" id="ramp_eval_1_0" sampledSeconds="1413.70" nVehEntered="13" nVehLeft="12" nVehSeen="35" meanSpeed="8.77" meanTimeLoss="8.00" meanOccupancy="9.94" maxOccupancy="11.44" meanMaxJamLengthInVehicles="0.00" meanMaxJamLengthInMeters="0.00" maxJamLengthInVehicles="0" maxJamLengthInMeters="0.00" jamLengthInVehiclesSum="0" jamLengthInMetersSum="0.00" meanHaltingDuration="0.00" maxHaltingDuration="0.00" haltingDurationSum="0.00" meanIntervalHaltingDuration="0.00" maxIntervalHaltingDuration="0.00" intervalHaltingDurationSum="0.00" startedHalts="0.00" meanVehicleNumber="23.73" maxVehicleNumber="27" />
    <interval begin="300.00" end="360.00" id="ramp_eval_0_0" nVehContrib="12" flow="720.00" occupancy="9.21" speed="10.52" length="5.00" nVehEntered="11"/>
    <interval begin="300.00" end="360.00" id="ramp_eval_2_0" nVehContrib="5" flow="300.00" occupancy="5.70" speed="7.35" length="5.00" nVehEntered="6"/>
   <interval begin="300.00" end="360.00" id="ramp_eval_1_0" sampledSeconds="1584.89" nVehEntered="11" nVehLeft="2" nVehSeen="34" meanSpeed="9.00" meanTimeLoss="8.21" meanOccupancy="11.20" maxOccupancy="13.56" meanMaxJamLengthInVehicles="0.00" meanMaxJamLengthInMeters="0.00" maxJamLengthInVehicles="0" maxJamLengthInMeters="0.00" jamLengthInVehiclesSum="0" jamLengthInMetersSum="0.00" meanHaltingDuration="0.00" maxHaltingDuration="0.00" haltingDurationSum="0.00" meanIntervalHaltingDuration="0.00" maxIntervalHaltingDuration="0.00" intervalHaltingDurationSum="0.00" startedHalts="0.00" meanVehicleNumber="26.52" maxVehicleNumber="32" />
    <interval begin="360.00" end="420.00" id="ramp_eval_0_0" nVehContrib="12" flow="720.00" occupancy="11.08" speed="9.38" length="5.00" nVehEntered="13"/>
    <interval begin="360.00" end="420.00" id="ramp_eval_2_0" nVehContrib="19" flow="1140.00" occupancy="18.67" speed="8.55" length="5.00" nVehEntered="18"/>
   <interval begin="360.00" end="420.00" id="ramp_eval_1_0" sampledSeconds="1660.09" nVehEntered="11" nVehLeft="22" nVehSeen="43" meanSpeed="9.06" meanTimeLoss="6.56" meanOccupancy="11.60" maxOccupancy="13.98" meanMaxJamLengthInVehicles="0.20" meanMaxJamLengthInMeters="1.13" maxJamLengthInVehicles="2" maxJamLengthInMeters="13.76" jamLengthInVehiclesSum="12" jamLengthInMetersSum="67.64" meanHaltingDuration="1.92" maxHaltingDuration="4.00" haltingDurationSum="25.00" meanIntervalHaltingDuration="1.92" maxIntervalHaltingDuration="4.00" intervalHaltingDurationSum="25.00" startedHalts="13.00" meanVehicleNumber="27.98" maxVehicleNumber="33" />
    <interval begin="420.00" end="480.00" id="ramp_eval_0_0" nVehContrib="12" flow="720.00" occupancy="8.89" speed="10.86" length="5.00" nVehEntered="11"/>
    <interval begin="420.00" end="480.00" id="ramp_eval_2_0" nVehContrib="6" flow="360.00" occupancy="5.53" speed="9.67" length="5.00" nVehEntered="7"/>
   <interval begin="420.00" end="480.00" id="ramp_eval_1_0" sampledSeconds="1429.20" nVehEntered="13" nVehLeft="8" nVehSeen="34" meanSpeed="9.92" meanTimeLoss="4.25" meanOccupancy="10.05" maxOccupancy="11.02" meanMaxJamLengthInVehicles="0.08" meanMaxJamLengthInMeters="0.41" maxJamLengthInVehicles="2" maxJamLengthInMeters="12.88" jamLengthInVehiclesSum="5" jamLengthInMetersSum="24.43" meanHaltingDuration="3.50" maxHaltingDuration="4.00" haltingDurationSum="7.00" meanIntervalHaltingDuration="3.50" maxIntervalHaltingDuration="4.00" intervalHaltingDurationSum="7.00" startedHalts="2.00" meanVehicleNumber="24.00" maxVehicleNumber="26" />
    <interval begin="480.00" end="540.00" id="ramp_eval_0_0" nVehContrib="12" flow="720.00" occupancy="9.53" speed="10.55" length="5.00" nVehEntered="12"/>
    <interval begin="480.00" end="540.00" id="ramp_eval_2_0" nVehContrib="18" flow="1080.00" occupancy="16.05" speed="9.22" length="5.00" nVehEntered="17"/>
   <interval begin="480.00" end="540.00" id="ramp_eval_1_0" sampledSeconds="1451.19" nVehEntered="11" nVehLeft="14" nVehSeen="37" meanSpeed="10.09" meanTimeLoss="4.13" meanOccupancy="10.18" maxOccupancy="11.86" meanMaxJamLengthInVehicles="0.00" meanMaxJamLengthInMeters="0.00" maxJamLengthInVehicles="0" maxJamLengthInMeters="0.00" jamLengthInVehiclesSum="0" jamLengthInMetersSum="0.00" meanHaltingDuration="0.00" maxHaltingDuration="0.00" haltingDurationSum="0.00" meanIntervalHaltingDuration="0.00" maxIntervalHaltingDuration="0.00" intervalHaltingDurationSum="0.00" startedHalts="0.00" meanVehicleNumber="24.38" maxVehicleNumber="28" />
    <interval begin="540.00" end="600.00" id="ramp_eval_0_0" nVehContrib="12" flow="720.00" occupancy="10.03" speed="10.03" length="5.00" nVehEntered="12"/>
    <interval begin="540.00" end="600.00" id="ramp_eval_2_0" nVehContrib="10" flow="600.00" occupancy="7.89" speed="10.59" length="5.00" nVehEntered="10"/>
   <interval begin="540.00" end="600.00" id="ramp_eval_1_0" sampledSeconds="1268.39" nVehEntered="12" nVehLeft="12" nVehSeen="35" meanSpeed="9.88" meanTimeLoss="4.25" meanOccupancy="8.92" maxOccupancy="9.75" meanMaxJamLengthInVehicles="0.00" meanMaxJamLengthInMeters="0.00" maxJamLengthInVehicles="0" maxJamLengthInMeters="0.00" jamLengthInVehiclesSum="0" jamLengthInMetersSum="0.00" meanHaltingDuration="0.00" maxHaltingDuration="0.00" haltingDurationSum="0.00" meanIntervalHaltingDuration="0.00" maxIntervalHaltingDuration="0.00" intervalHaltingDurationSum="0.00" startedHalts="0.00" meanVehicleNumber="21.35" maxVehicleNumber="23" />
    <interval begin="600.00" end="660.00" id="ramp_eval_0_0" nVehContrib="11" flow="660.00" occupancy="9.79" speed="9.43" length="5.00" nVehEntered="11"/>
    <interval begin="600.00" end="660.00" id="ramp_eval_2_0" nVehContrib="13" flow="780.00" occupancy="11.53" speed="9.42" length="5.00" nVehEntered="13"/>
   <interval begin="600.00" end="660.00" id="ramp_eval_1_0" sampledSeconds="1465.08" nVehEntered="11" nVehLeft="10" nVehSeen="34" meanSpeed="9.47" meanTimeLoss="6.18" meanOccupancy="10.29" maxOccupancy="11.44" meanMaxJamLengthInVehicles="0.00" meanMaxJamLengthInMeters="0.00" maxJamLengthInVehicles="0" maxJamLengthInMeters="0.00" jamLengthInVehiclesSum="0" jamLengthInMetersSum="0.00" meanHaltingDuration="1.00" maxHaltingDuration="1.00" haltingDurationSum="1.00" meanIntervalHaltingDuration="1.00" maxIntervalHaltingDuration="1.00" intervalHaltingDurationSum="1.00" startedHalts="1.00" meanVehicleNumber="24.57" maxVehicleNumber="27" />
    <interval begin="660.00" end="720.00" id="ramp_eval_0_0" nVehContrib="12" flow="720.00" occupancy="9.75" speed="10.31" length="5.00" nVehEntered="12"/>
    <interval begin="660.00" end="720.00" id="ramp_eval_2_0" nVehContrib="8" flow="480.00" occupancy="7.23" speed="9.29" length="5.00" nVehEntered="8"/>
   <interval begin="660.00" end="720.00" id="ramp_eval_1_0" sampledSeconds="1445.64" nVehEntered="13" nVehLeft="9" nVehSeen="37" meanSpeed="9.42" meanTimeLoss="5.39" meanOccupancy="10.12" maxOccupancy="11.86" meanMaxJamLengthInVehicles="0.25" meanMaxJamLengthInMeters="1.24" maxJamLengthInVehicles="2" maxJamLengthInMeters="13.36" jamLengthInVehiclesSum="15" jamLengthInMetersSum="74.29" meanHaltingDuration="6.00" maxHaltingDuration="7.00" haltingDurationSum="18.00" meanIntervalHaltingDuration="6.00" maxIntervalHaltingDuration="7.00" intervalHaltingDurationSum="18.00" startedHalts="3.00" meanVehicleNumber="24.27" maxVehicleNumber="28" />
    <interval begin="720.00" end="780.00" id="ramp_eval_0_0" nVehContrib="12" flow="720.00" occupancy="10.16" speed="9.90" length="5.00" nVehEntered="12"/>
    <interval begin="720.00" end="780.00" id="ramp_eval_2_0" nVehContrib="16" flow="960.00" occupancy="14.09" speed="9.50" length="5.00" nVehEntered="16"/>
   <interval begin="720.00" end="780.00" id="ramp_eval_1_0" sampledSeconds="1515.45" nVehEntered="10" nVehLeft="15" nVehSeen="38" meanSpeed="9.60" meanTimeLoss="5.07" meanOccupancy="10.59" maxOccupancy="12.29" meanMaxJamLengthInVehicles="0.23" meanMaxJamLengthInMeters="1.26" maxJamLengthInVehicles="2" maxJamLengthInMeters="13.91" jamLengthInVehiclesSum="14" jamLengthInMetersSum="75.54" meanHaltingDuration="3.00" maxHaltingDuration="5.00" haltingDurationSum="21.00" meanIntervalHaltingDuration="3.00" maxIntervalHaltingDuration="5.00" intervalHaltingDurationSum="21.00" startedHalts="7.00" meanVehicleNumber="25.45" maxVehicleNumber="29" />
    <interval begin="780.00" end="840.00" id="ramp_eval_0_0" nVehContrib="11" flow="660.00" occupancy="9.58" speed="9.62" length="5.00" nVehEntered="11"/>
    <interval begin="780.00" end="840.00" id="ramp_eval_2_0" nVehContrib="9" flow="540.00" occupancy="7.76" speed="9.72" length="5.00" nVehEntered="9"/>
   <interval begin="780.00" end="840.00" id="ramp_eval_1_0" sampledSeconds="1372.91" nVehEntered="12" nVehLeft="10" nVehSeen="35" meanSpeed="9.53" meanTimeLoss="4.52" meanOccupancy="9.66" maxOccupancy="11.02" meanMaxJamLengthInVehicles="0.00" meanMaxJamLengthInMeters="0.00" maxJamLengthInVehicles="0" maxJamLengthInMeters="0.00" jamLengthInVehiclesSum="0" jamLengthInMetersSum="0.00" meanHaltingDuration="0.00" maxHaltingDuration="0.00" haltingDurationSum="0.00" meanIntervalHaltingDuration="0.00" maxIntervalHaltingDuration="0.00" intervalHaltingDurationSum="0.00" startedHalts="0.00" meanVehicleNumber="23.05" maxVehicleNumber="26" />
    <interval begin="840.00" end="900.00" id="ramp_eval_0_0" nVehContrib="11" flow="660.00" occupancy="10.74" speed="8.67" length="5.00" nVehEntered="11"/>
    <interval begin="840.00" end="900.00" id="ramp_eval_2_0" nVehContrib="11" flow="660.00" occupancy="9.65" speed="9.51" length="5.00" nVehEntered="11"/>
   <interval begin="840.00" end="900.00" id="ramp_eval_1_0" sampledSeconds="1458.84" nVehEntered="12" nVehLeft="11" nVehSeen="37" meanSpeed="9.22" meanTimeLoss="5.35" meanOccupancy="10.24" maxOccupancy="11.15" meanMaxJamLengthInVehicles="0.05" meanMaxJamLengthInMeters="0.06" maxJamLengthInVehicles="1" maxJamLengthInMeters="1.56" jamLengthInVehiclesSum="3" jamLengthInMetersSum="3.54" meanHaltingDuration="4.00" maxHaltingDuration="4.00" haltingDurationSum="4.00" meanIntervalHaltingDuration="4.00" maxIntervalHaltingDuration="4.00" intervalHaltingDurationSum="4.00" startedHalts="1.00" meanVehicleNumber="24.52" maxVehicleNumber="27" />
    <interval begin="900.00" end="960.00" id="ramp_eval_0_0" nVehContrib="11" flow="660.00" occupancy="8.72" speed="10.54" length="5.00" nVehEntered="11"/>
    <interval begin="900.00" end="960.00" id="ramp_eval_2_0" nVehContrib="6" flow="360.00" occupancy="5.12" speed="9.80" length="5.00" nVehEntered="6"/>
   <interval begin="900.00" end="960.00" id="ramp_eval_1_0" sampledSeconds="1592.41" nVehEntered="11" nVehLeft="10" nVehSeen="37" meanSpeed="8.49" meanTimeLoss="9.68" meanOccupancy="11.09" maxOccupancy="11.47" meanMaxJamLengthInVehicles="0.78" meanMaxJamLengthInMeters="4.61" maxJamLengthInVehicles="4" maxJamLengthInMeters="28.73" jamLengthInVehiclesSum="48" jamLengthInMetersSum="281.45" meanHaltingDuration="4.00" maxHaltingDuration="8.00" haltingDurationSum="60.00" meanIntervalHaltingDuration="4.00" maxIntervalHaltingDuration="8.00" intervalHaltingDurationSum="60.00" startedHalts="16.00" meanVehicleNumber="26.73" maxVehicleNumber="28" />
    <interval begin="960.00" end="1020.00" id="ramp_eval_0_0" nVehContrib="12" flow="720.00" occupancy="11.55" speed="8.76" length="5.00" nVehEntered="12"/>
    <interval begin="960.00" end="1020.00" id="ramp_eval_2_0" nVehContrib="21" flow="1260.00" occupancy="19.86" speed="8.95" length="5.00" nVehEntered="21"/>
   <interval begin="960.00" end="1020.00" id="ramp_eval_1_0" sampledSeconds="1606.20" nVehEntered="13" nVehLeft="16" nVehSeen="40" meanSpeed="9.10" meanTimeLoss="6.76" meanOccupancy="11.24" maxOccupancy="13.14" meanMaxJamLengthInVehicles="0.08" meanMaxJamLengthInMeters="0.34" maxJamLengthInVehicles="1" maxJamLengthInMeters="5.00" jamLengthInVehiclesSum="5" jamLengthInMetersSum="20.59" meanHaltingDuration="1.71" maxHaltingDuration="2.00" haltingDurationSum="12.00" meanIntervalHaltingDuration="1.71" maxIntervalHaltingDuration="2.00" intervalHaltingDurationSum="12.00" startedHalts="7.00" meanVehicleNumber="27.02" maxVehicleNumber="31" />
    <interval begin="1020.00" end="1080.00" id="ramp_eval_0_0" nVehContrib="12" flow="720.00" occupancy="9.70" speed="10.38" length="5.00" nVehEntered="12"/>
    <interval begin="1020.00" end="1080.00" id="ramp_eval_2_0" nVehContrib="6" flow="360.00" occupancy="5.65" speed="8.87" length="5.00" nVehEntered="6"/>
   <interval begin="1020.00" end="1080.00" id="ramp_eval_1_0" sampledSeconds="1456.88" nVehEntered="11" nVehLeft="11" nVehSeen="35" meanSpeed="9.05" meanTimeLoss="7.10" meanOccupancy="10.19" maxOccupancy="11.44" meanMaxJamLengthInVehicles="0.27" meanMaxJamLengthInMeters="1.24" maxJamLengthInVehicles="2" maxJamLengthInMeters="13.49" jamLengthInVehiclesSum="16" jamLengthInMetersSum="74.22" meanHaltingDuration="2.78" maxHaltingDuration="3.00" haltingDurationSum="25.00" meanIntervalHaltingDuration="2.78" maxIntervalHaltingDuration="3.00" intervalHaltingDurationSum="25.00" startedHalts="9.00" meanVehicleNumber="24.45" maxVehicleNumber="27" />
    <interval begin="1080.00" end="1140.00" id="ramp_eval_0_0" nVehContrib="12" flow="720.00" occupancy="9.76" speed="10.27" length="5.00" nVehEntered="12"/>
    <interval begin="1080.00" end="1140.00" id="ramp_eval_2_0" nVehContrib="17" flow="1020.00" occupancy="18.03" speed="7.88" length="5.00" nVehEntered="17"/>
   <interval begin="1080.00" end="1140.00" id="ramp_eval_1_0" sampledSeconds="1661.24" nVehEntered="12" nVehLeft="9" nVehSeen="36" meanSpeed="9.20" meanTimeLoss="7.46" meanOccupancy="11.67" maxOccupancy="12.71" meanMaxJamLengthInVehicles="0.17" meanMaxJamLengthInMeters="0.70" maxJamLengthInVehicles="1" maxJamLengthInMeters="5.00" jamLengthInVehiclesSum="12" jamLengthInMetersSum="47.26" meanHaltingDuration="1.92" maxHaltingDuration="3.00" haltingDurationSum="25.00" meanIntervalHaltingDuration="1.92" maxIntervalHaltingDuration="3.00" intervalHaltingDurationSum="25.00" startedHalts="13.00" meanVehicleNumber="27.92" maxVehicleNumber="31" />
    <interval begin="1140.00" end="1200.00" id="ramp_eval_0_0" nVehContrib="12" flow="720.00" occupancy="10.01" speed="10.05" length="5.00" nVehEntered="12"/>
    <interval begin="1140.00" end="1200.00" id="ramp_eval_2_0" nVehContrib="10" flow="600.00" occupancy="8.28" speed="10.08" length="5.00" nVehEntered="10"/>
   <interval begin="1140.00" end="1200.00" id="ramp_eval_1_0" sampledSeconds="1468.44" nVehEntered="12" nVehLeft="16" nVehSeen="39" meanSpeed="9.21" meanTimeLoss="5.80" meanOccupancy="10.25" maxOccupancy="11.44" meanMaxJamLengthInVehicles="0.38" meanMaxJamLengthInMeters="2.28" maxJamLengthInVehicles="3" maxJamLengthInMeters="21.47" jamLengthInVehiclesSum="24" jamLengthInMetersSum="141.53" meanHaltingDuration="2.73" maxHaltingDuration="5.00" haltingDurationSum="41.00" meanIntervalHaltingDuration="2.40" maxIntervalHaltingDuration="5.00" intervalHaltingDurationSum="36.00" startedHalts="12.00" meanVehicleNumber="24.73" maxVehicleNumber="27" />
    <interval begin="1200.00" end="1260.00" id="ramp_eval_0_0" nVehContrib="11" flow="660.00" occupancy="10.06" speed="9.17" length="5.00" nVehEntered="11"/>
    <interval begin="1200.00" end="1260.00" id="ramp_eval_2_0" nVehContrib="13" flow="780.00" occupancy="11.32" speed="9.60" length="5.00" nVehEntered="13"/>
   <interval begin="1200.00" end="1260.00" id="ramp_eval_1_0" sampledSeconds="1403.28" nVehEntered="11" nVehLeft="9" nVehSeen="34" meanSpeed="9.32" meanTimeLoss="4.92" meanOccupancy="9.87" maxOccupancy="11.02" meanMaxJamLengthInVehicles="0.00" meanMaxJamLengthInMeters="0.00" maxJamLengthInVehicles="0" maxJamLengthInMeters="0.00" jamLengthInVehiclesSum="0" jamLengthInMetersSum="0.00" meanHaltingDuration="0.00" maxHaltingDuration="0.00" haltingDurationSum="0.00" meanIntervalHaltingDuration="0.00" maxIntervalHaltingDuration="0.00" intervalHaltingDurationSum="0.00" startedHalts="0.00" meanVehicleNumber="23.55" maxVehicleNumber="26" />
    <interval begin="1260.00" end="1320.00" id="ramp_eval_0_0" nVehContrib="11" flow="660.00" occupancy="9.29" speed="9.91" length="5.00" nVehEntered="11"/>
    <interval begin="1260.00" end="1320.00" id="ramp_eval_2_0" nVehContrib="8" flow="480.00" occupancy="8.01" speed="8.38" length="5.00" nVehEntered="8"/>
   <interval begin="1260.00" end="1320.00" id="ramp_eval_1_0" sampledSeconds="1465.94" nVehEntered="11" nVehLeft="8" nVehSeen="36" meanSpeed="9.22" meanTimeLoss="5.12" meanOccupancy="10.33" maxOccupancy="11.86" meanMaxJamLengthInVehicles="0.00" meanMaxJamLengthInMeters="0.00" maxJamLengthInVehicles="0" maxJamLengthInMeters="0.00" jamLengthInVehiclesSum="0" jamLengthInMetersSum="0.00" meanHaltingDuration="0.00" maxHaltingDuration="0.00" haltingDurationSum="0.00" meanIntervalHaltingDuration="0.00" maxIntervalHaltingDuration="0.00" intervalHaltingDurationSum="0.00" startedHalts="0.00" meanVehicleNumber="24.60" maxVehicleNumber="28" />
    <interval begin="1320.00" end="1380.00" id="ramp_eval_0_0" nVehContrib="13" flow="780.00" occupancy="11.38" speed="9.58" length="5.00" nVehEntered="13"/>
    <interval begin="1320.00" end="1380.00" id="ramp_eval_2_0" nVehContrib="15" flow="900.00" occupancy="14.37" speed="9.23" length="5.00" nVehEntered="16"/>
   <interval begin="1320.00" end="1380.00" id="ramp_eval_1_0" sampledSeconds="1575.71" nVehEntered="13" nVehLeft="16" nVehSeen="41" meanSpeed="9.32" meanTimeLoss="5.19" meanOccupancy="11.01" maxOccupancy="12.29" meanMaxJamLengthInVehicles="0.27" meanMaxJamLengthInMeters="1.53" maxJamLengthInVehicles="3" maxJamLengthInMeters="21.01" jamLengthInVehiclesSum="16" jamLengthInMetersSum="91.67" meanHaltingDuration="4.20" maxHaltingDuration="5.00" haltingDurationSum="21.00" meanIntervalHaltingDuration="4.20" maxIntervalHaltingDuration="5.00" intervalHaltingDurationSum="21.00" startedHalts="5.00" meanVehicleNumber="26.50" maxVehicleNumber="29" />
    <interval begin="1380.00" end="1440.00" id="ramp_eval_0_0" nVehContrib="10" flow="600.00" occupancy="8.60" speed="10.33" length="5.00" nVehEntered="11"/>
    <interval begin="1380.00" end="1440.00" id="ramp_eval_2_0" nVehContrib="7" flow="420.00" occupancy="5.64" speed="9.17" length="5.00" nVehEntered="6"/>
   <interval begin="1380.00" end="1440.00" id="ramp_eval_1_0" sampledSeconds="1416.40" nVehEntered="11" nVehLeft="11" nVehSeen="36" meanSpeed="9.67" meanTimeLoss="4.42" meanOccupancy="9.96" maxOccupancy="11.02" meanMaxJamLengthInVehicles="0.00" meanMaxJamLengthInMeters="0.00" maxJamLengthInVehicles="0" maxJamLengthInMeters="0.00" jamLengthInVehiclesSum="0" jamLengthInMetersSum="0.00" meanHaltingDuration="0.00" maxHaltingDuration="0.00" haltingDurationSum="0.00" meanIntervalHaltingDuration="0.00" maxIntervalHaltingDuration="0.00" intervalHaltingDurationSum="0.00" startedHalts="0.00" meanVehicleNumber="23.77" maxVehicleNumber="27" />
    <interval begin="1440.00" end="1500.00" id="ramp_eval_0_0" nVehContrib="11" flow="660.00" occupancy="9.37" speed="9.37" length="5.00" nVehEntered="10"/>
    <interval begin="1440.00" end="1500.00" id="ramp_eval_2_0" nVehContrib="15" flow="900.00" occupancy="14.00" speed="9.04" length="5.00" nVehEntered="15"/>
   <interval begin="1440.00" end="1500.00" id="ramp_eval_1_0" sampledSeconds="1451.46" nVehEntered="11" nVehLeft="15" nVehSeen="36" meanSpeed="9.39" meanTimeLoss="5.74" meanOccupancy="10.18" maxOccupancy="11.44" meanMaxJamLengthInVehicles="0.03" meanMaxJamLengthInMeters="0.01" maxJamLengthInVehicles="1" maxJamLengthInMeters="0.82" jamLengthInVehiclesSum="2" jamLengthInMetersSum="0.82" meanHaltingDuration="0.00" maxHaltingDuration="0.00" haltingDurationSum="0.00" meanIntervalHaltingDuration="0.00" maxIntervalHaltingDuration="0.00" intervalHaltingDurationSum="0.00" startedHalts="1.00" meanVehicleNumber="24.43" maxVehicleNumber="27" />
    <interval begin="1500.00" end="1560.00" id="ramp_eval_0_0" nVehContrib="13" flow="780.00" occupancy="12.30" speed="8.88" length="5.00" nVehEntered="13"/>
    <interval begin="1500.00" end="1560.00" id="ramp_eval_2_0" nVehContrib="10" flow="600.00" occupancy="9.17" speed="9.12" length="5.00" nVehEntered="10"/>
   <interval begin="1500.00" end="1560.00" id="ramp_eval_1_0" sampledSeconds="1436.29" nVehEntered="13" nVehLeft="11" nVehSeen="34" meanSpeed="9.01" meanTimeLoss="6.66" meanOccupancy="10.11" maxOccupancy="11.44" meanMaxJamLengthInVehicles="0.00" meanMaxJamLengthInMeters="0.00" maxJamLengthInVehicles="0" maxJamLengthInMeters="0.00" jamLengthInVehiclesSum="0" jamLengthInMetersSum="0.00" meanHaltingDuration="0.00" maxHaltingDuration="0.00" haltingDurationSum="0.00" meanIntervalHaltingDuration="0.00" maxIntervalHaltingDuration="0.00" intervalHaltingDurationSum="0.00" startedHalts="0.00" meanVehicleNumber="24.13" maxVehicleNumber="27" />
    <interval begin="1560.00" end="1620.00" id="ramp_eval_0_0" nVehContrib="14" flow="840.00" occupancy="12.50" speed="9.50" length="5.00" nVehEntered="14"/>
    <interval begin="1560.00" end="1620.00" id="ramp_eval_2_0" nVehContrib="11" flow="660.00" occupancy="10.80" speed="8.51" length="5.00" nVehEntered="11"/>
   <interval begin="1560.00" end="1620.00" id="ramp_eval_1_0" sampledSeconds="1605.84" nVehEntered="11" nVehLeft="6" nVehSeen="34" meanSpeed="8.73" meanTimeLoss="8.64" meanOccupancy="11.30" maxOccupancy="12.71" meanMaxJamLengthInVehicles="0.17" meanMaxJamLengthInMeters="0.89" maxJamLengthInVehicles="2" maxJamLengthInMeters="13.44" jamLengthInVehiclesSum="10" jamLengthInMetersSum="53.22" meanHaltingDuration="2.25" maxHaltingDuration="3.00" haltingDurationSum="18.00" meanIntervalHaltingDuration="2.25" maxIntervalHaltingDuration="3.00" intervalHaltingDurationSum="18.00" startedHalts="8.00" meanVehicleNumber="26.88" maxVehicleNumber="30" />
    <interval begin="1620.00" end="1680.00" id="ramp_eval_0_0" nVehContrib="11" flow="660.00" occupancy="8.48" speed="10.85" length="5.00" nVehEntered="11"/>
    <interval begin="1620.00" end="1680.00" id="ramp_eval_2_0" nVehContrib="8" flow="480.00" occupancy="7.76" speed="8.62" length="5.00" nVehEntered="8"/>
   <interval begin="1620.00" end="1680.00" id="ramp_eval_1_0" sampledSeconds="1615.36" nVehEntered="12" nVehLeft="12" nVehSeen="40" meanSpeed="9.04" meanTimeLoss="7.58" meanOccupancy="11.33" maxOccupancy="11.86" meanMaxJamLengthInVehicles="0.12" meanMaxJamLengthInMeters="0.37" maxJamLengthInVehicles="1" maxJamLengthInMeters="5.00" jamLengthInVehiclesSum="7" jamLengthInMetersSum="22.22" meanHaltingDuration="2.50" maxHaltingDuration="4.00" haltingDurationSum="15.00" meanIntervalHaltingDuration="2.00" maxIntervalHaltingDuration="3.00" intervalHaltingDurationSum="12.00" startedHalts="5.00" meanVehicleNumber="27.10" maxVehicleNumber="29" />
    <interval begin="1680.00" end="1740.00" id="ramp_eval_0_0" nVehContrib="11" flow="660.00" occupancy="9.86" speed="9.52" length="5.00" nVehEntered="12"/>
    <interval begin="1680.00" end="1740.00" id="ramp_eval_2_0" nVehContrib="18" flow="1080.00" occupancy="17.59" speed="8.72" length="5.00" nVehEntered="18"/>
   <interval begin="1680.00" end="1740.00" id="ramp_eval_1_0" sampledSeconds="1530.18" nVehEntered="12" nVehLeft="18" nVehSeen="40" meanSpeed="9.42" meanTimeLoss="5.93" meanOccupancy="10.69" maxOccupancy="12.71" meanMaxJamLengthInVehicles="0.13" meanMaxJamLengthInMeters="0.64" maxJamLengthInVehicles="2" maxJamLengthInMeters="13.47" jamLengthInVehiclesSum="8" jamLengthInMetersSum="38.66" meanHaltingDuration="2.60" maxHaltingDuration="3.00" haltingDurationSum="13.00" meanIntervalHaltingDuration="2.60" maxIntervalHaltingDuration="3.00" intervalHaltingDurationSum="13.00" startedHalts="5.00" meanVehicleNumber="25.77" maxVehicleNumber="30" />
    <interval begin="1740.00" end="1800.00" id="ramp_eval_0_0" nVehContrib="10" flow="600.00" occupancy="8.84" speed="9.36" length="5.00" nVehEntered="9"/>
    <interval begin="1740.00" end="1800.00" id="ramp_eval_2_0" nVehContrib="9" flow="540.00" occupancy="7.34" speed="10.23" length="5.00" nVehEntered="9"/>
   <interval begin="1740.00" end="1800.00" id="ramp_eval_1_0" sampledSeconds="1463.66" nVehEntered="12" nVehLeft="9" nVehSeen="34" meanSpeed="8.44" meanTimeLoss="9.22" meanOccupancy="10.19" maxOccupancy="11.00" meanMaxJamLengthInVehicles="0.88" meanMaxJamLengthInMeters="4.77" maxJamLengthInVehicles="3" maxJamLengthInMeters="21.29" jamLengthInVehiclesSum="53" jamLengthInMetersSum="286.01" meanHaltingDuration="3.13" maxHaltingDuration="13.00" haltingDurationSum="72.00" meanIntervalHaltingDuration="3.13" maxIntervalHaltingDuration="13.00" intervalHaltingDurationSum="72.00" startedHalts="24.00" meanVehicleNumber="24.58" maxVehicleNumber="26" />
    <interval begin="1800.00" end="1860.00" id="ramp_eval_0_0" nVehContrib="14" flow="840.00" occupancy="12.82" speed="9.20" length="5.00" nVehEntered="14"/>