<?xml version="1.0" encoding="UTF-8"?>

<!-- generated on 07/20/18 10:25:31 by SUMO Version 0.32.0
<?xml version="1.0" encoding="UTF-8"?>

<configuration xmlns:xsi="http://www.w3.org/2001/XMLSchema-instance" xsi:noNamespaceSchemaLocation="http://sumo.dlr.de/xsd/sumoConfiguration.xsd">

    <input>
        <net-file value="./SimulationProject/Scenario_4_v2/Eval/ramp.net.xml"/>
        <route-files value="./SimulationProject/Scenario_4_v2/Eval/ramp.rou.xml"/>
        <additional-files value="./SimulationProject/Scenario_4_v2/Eval/ramp.det.xml"/>
    </input>

    <time>
        <begin value="0"/>
    </time>

    <report>
        <verbose value="true"/>
        <no-step-log value="true"/>
    </report>

    <traci_server>
        <remote-port value="11778"/>
    </traci_server>

    <random_number>
        <seed value="15795"/>
    </random_number>

    <gui_only>
        <quit-on-end value="true"/>
        <start value="true"/>
    </gui_only>

</configuration>
-->

<detector xmlns:xsi="http://www.w3.org/2001/XMLSchema-instance" xsi:noNamespaceSchemaLocation="http://sumo.dlr.de/xsd/det_e1_file.xsd">
</detector>
