<?xml version="1.0" encoding="UTF-8"?>

<!-- generated on 02/11/19 00:45:27 by Eclipse SUMO GUI Version 1.0.1
<configuration xmlns:xsi="http://www.w3.org/2001/XMLSchema-instance" xsi:noNamespaceSchemaLocation="http://sumo.dlr.de/xsd/sumoConfiguration.xsd">

    <input>
        <net-file value="H:\Files\交通运输工程\交科\Github\DQN_VSL_Controller\lib\sumo\doc\examples\sumo\sublane_model\net.net.xml"/>
        <route-files value="H:\Files\交通运输工程\交科\Github\DQN_VSL_Controller\lib\sumo\doc\examples\sumo\sublane_model\input_routes.rou.xml"/>
    </input>

    <output>
        <write-license value="true"/>
        <tripinfo-output value="H:\Files\交通运输工程\交科\Github\DQN_VSL_Controller\lib\sumo\doc\examples\sumo\sublane_model\tripinfos.xml"/>
    </output>

    <processing>
        <lateral-resolution value="0.64"/>
        <default.speeddev value="0"/>
    </processing>

    <report>
        <verbose value="true"/>
        <xml-validation value="never"/>
        <duration-log.statistics value="true"/>
        <no-step-log value="true"/>
    </report>

</configuration>
-->

<tripinfos xmlns:xsi="http://www.w3.org/2001/XMLSchema-instance" xsi:noNamespaceSchemaLocation="http://sumo.dlr.de/xsd/tripinfo_file.xsd">
    <tripinfo id="mixed.5" depart="9.00" departLane="beg_1" departPos="5.10" departPosLat="0.60" departSpeed="0.00" departDelay="4.00" arrival="218.00" arrivalLane="end_0" arrivalPos="200.00" arrivalPosLat="-0.70" arrivalSpeed="13.43" duration="209.00" routeLength="494.90" waitingTime="162.00" waitingCount="1" stopTime="0.00" timeLoss="173.67" rerouteNo="0" devices="tripinfo_mixed.5" vType="car" speedFactor="1.03" vaporized=""/>
    <tripinfo id="mixed.3" depart="4.00" departLane="beg_1" departPos="2.20" departPosLat="-0.43" departSpeed="0.00" departDelay="1.00" arrival="222.00" arrivalLane="end_0" arrivalPos="200.00" arrivalPosLat="-1.20" arrivalSpeed="13.28" duration="218.00" routeLength="497.80" waitingTime="165.00" waitingCount="1" stopTime="0.00" timeLoss="181.38" rerouteNo="0" devices="tripinfo_mixed.3" vType="moped" speedFactor="0.98" vaporized=""/>
    <tripinfo id="mixed.9" depart="11.00" departLane="beg_0" departPos="5.10" departPosLat="-0.55" departSpeed="0.00" departDelay="2.00" arrival="223.00" arrivalLane="end_0" arrivalPos="200.00" arrivalPosLat="0.58" arrivalSpeed="10.83" duration="212.00" routeLength="494.90" waitingTime="153.00" waitingCount="1" stopTime="0.00" timeLoss="167.19" rerouteNo="0" devices="tripinfo_mixed.9" vType="car" speedFactor="0.80" vaporized=""/>
    <tripinfo id="mixed.13" depart="17.00" departLane="beg_0" departPos="2.20" departPosLat="-0.23" departSpeed="0.00" departDelay="4.00" arrival="224.00" arrivalLane="end_1" arrivalPos="200.00" arrivalPosLat="-1.20" arrivalSpeed="16.33" duration="207.00" routeLength="497.80" waitingTime="155.00" waitingCount="1" stopTime="0.00" timeLoss="176.26" rerouteNo="0" devices="tripinfo_mixed.13" vType="moped" speedFactor="1.33" vaporized=""/>
    <tripinfo id="mixed.0" depart="0.00" departLane="beg_0" departPos="2.20" departPosLat="0.51" departSpeed="0.00" departDelay="0.00" arrival="225.00" arrivalLane="end_0" arrivalPos="200.00" arrivalPosLat="-1.20" arrivalSpeed="10.23" duration="225.00" routeLength="497.80" waitingTime="163.00" waitingCount="1" stopTime="0.00" timeLoss="176.95" rerouteNo="0" devices="tripinfo_mixed.0" vType="moped" speedFactor="0.75" vaporized=""/>
    <tripinfo id="mixed.11" depart="15.00" departLane="beg_0" departPos="5.10" departPosLat="-0.54" departSpeed="0.00" departDelay="4.00" arrival="225.00" arrivalLane="end_0" arrivalPos="200.00" arrivalPosLat="1.18" arrivalSpeed="13.54" duration="210.00" routeLength="494.90" waitingTime="154.00" waitingCount="1" stopTime="0.00" timeLoss="176.66" rerouteNo="0" devices="tripinfo_mixed.11" vType="car" speedFactor="1.08" vaporized=""/>
    <tripinfo id="mixed.6" depart="6.00" departLane="beg_0" departPos="2.20" departPosLat="-0.40" departSpeed="0.00" departDelay="0.00" arrival="226.00" arrivalLane="end_0" arrivalPos="200.00" arrivalPosLat="-1.20" arrivalSpeed="11.46" duration="220.00" routeLength="497.80" waitingTime="158.00" waitingCount="1" stopTime="0.00" timeLoss="190.05" rerouteNo="0" devices="tripinfo_mixed.6" vType="moped" speedFactor="1.36" vaporized=""/>
    <tripinfo id="mixed.20" depart="25.00" departLane="beg_0" departPos="5.10" departPosLat="-0.52" departSpeed="0.00" departDelay="5.00" arrival="226.00" arrivalLane="end_1" arrivalPos="200.00" arrivalPosLat="-0.06" arrivalSpeed="16.42" duration="201.00" routeLength="494.90" waitingTime="150.00" waitingCount="1" stopTime="0.00" timeLoss="171.89" rerouteNo="0" devices="tripinfo_mixed.20" vType="car" speedFactor="1.26" vaporized=""/>
    <tripinfo id="mixed.15" depart="19.00" departLane="beg_0" departPos="2.20" departPosLat="-1.12" departSpeed="0.00" departDelay="4.00" arrival="227.00" arrivalLane="end_0" arrivalPos="200.00" arrivalPosLat="0.08" arrivalSpeed="15.35" duration="208.00" routeLength="497.80" waitingTime="145.00" waitingCount="1" stopTime="0.00" timeLoss="175.64" rerouteNo="0" devices="tripinfo_mixed.15" vType="moped" speedFactor="1.12" vaporized=""/>
    <tripinfo id="mixed.24" depart="36.00" departLane="beg_0" departPos="2.20" departPosLat="-0.16" departSpeed="0.00" departDelay="12.00" arrival="229.00" arrivalLane="end_1" arrivalPos="200.00" arrivalPosLat="-0.60" arrivalSpeed="13.25" duration="193.00" routeLength="497.80" waitingTime="129.00" waitingCount="2" stopTime="0.00" timeLoss="155.83" rerouteNo="0" devices="tripinfo_mixed.24" vType="moped" speedFactor="0.98" vaporized=""/>
    <tripinfo id="mixed.12" depart="12.00" departLane="beg_1" departPos="2.20" departPosLat="0.67" departSpeed="0.00" departDelay="0.00" arrival="230.00" arrivalLane="end_0" arrivalPos="200.00" arrivalPosLat="0.68" arrivalSpeed="9.80" duration="218.00" routeLength="497.80" waitingTime="152.00" waitingCount="1" stopTime="0.00" timeLoss="169.42" rerouteNo="0" devices="tripinfo_mixed.12" vType="moped" speedFactor="0.74" vaporized=""/>
    <tripinfo id="mixed.7" depart="7.00" departLane="beg_0" departPos="2.20" departPosLat="0.75" departSpeed="0.00" departDelay="0.00" arrival="230.00" arrivalLane="end_0" arrivalPos="200.00" arrivalPosLat="-1.20" arrivalSpeed="9.30" duration="223.00" routeLength="497.80" waitingTime="155.00" waitingCount="1" stopTime="0.00" timeLoss="170.77" rerouteNo="0" devices="tripinfo_mixed.7" vType="moped" speedFactor="0.69" vaporized=""/>
    <tripinfo id="mixed.25" depart="38.00" departLane="beg_1" departPos="5.10" departPosLat="-0.11" departSpeed="0.00" departDelay="13.00" arrival="231.00" arrivalLane="end_1" arrivalPos="200.00" arrivalPosLat="-0.10" arrivalSpeed="12.60" duration="193.00" routeLength="494.90" waitingTime="128.00" waitingCount="2" stopTime="0.00" timeLoss="154.83" rerouteNo="0" devices="tripinfo_mixed.25" vType="car" speedFactor="0.94" vaporized=""/>
    <tripinfo id="mixed.8" depart="16.00" departLane="beg_1" departPos="5.10" departPosLat="-0.19" departSpeed="0.00" departDelay="8.00" arrival="232.00" arrivalLane="end_0" arrivalPos="200.00" arrivalPosLat="-0.70" arrivalSpeed="13.73" duration="216.00" routeLength="494.90" waitingTime="152.00" waitingCount="1" stopTime="0.00" timeLoss="186.84" rerouteNo="0" devices="tripinfo_mixed.8" vType="car" speedFactor="1.25" vaporized=""/>
    <tripinfo id="mixed.22" depart="33.00" departLane="beg_1" departPos="2.20" departPosLat="0.88" departSpeed="0.00" departDelay="11.00" arrival="233.00" arrivalLane="end_0" arrivalPos="200.00" arrivalPosLat="1.36" arrivalSpeed="13.65" duration="200.00" routeLength="497.80" waitingTime="129.00" waitingCount="2" stopTime="0.00" timeLoss="169.68" rerouteNo="0" devices="tripinfo_mixed.22" vType="moped" speedFactor="1.62" vaporized=""/>
    <tripinfo id="mixed.26" depart="40.00" departLane="beg_1" departPos="2.20" departPosLat="-0.28" departSpeed="0.00" departDelay="14.00" arrival="233.00" arrivalLane="end_1" arrivalPos="200.00" arrivalPosLat="0.68" arrivalSpeed="13.95" duration="193.00" routeLength="497.80" waitingTime="126.00" waitingCount="1" stopTime="0.00" timeLoss="159.24" rerouteNo="0" devices="tripinfo_mixed.26" vType="moped" speedFactor="1.08" vaporized=""/>
    <tripinfo id="mixed.14" depart="22.00" departLane="beg_1" departPos="2.20" departPosLat="-1.06" departSpeed="0.00" departDelay="8.00" arrival="234.00" arrivalLane="end_0" arrivalPos="200.00" arrivalPosLat="-1.20" arrivalSpeed="12.08" duration="212.00" routeLength="497.80" waitingTime="146.00" waitingCount="2" stopTime="0.00" timeLoss="176.87" rerouteNo="0" devices="tripinfo_mixed.14" vType="moped" speedFactor="1.04" vaporized=""/>
    <tripinfo id="mixed.31" depart="44.00" departLane="beg_1" departPos="2.20" departPosLat="1.02" departSpeed="0.00" departDelay="13.00" arrival="234.00" arrivalLane="end_1" arrivalPos="200.00" arrivalPosLat="0.04" arrivalSpeed="13.33" duration="190.00" routeLength="497.80" waitingTime="125.00" waitingCount="1" stopTime="0.00" timeLoss="160.00" rerouteNo="0" devices="tripinfo_mixed.31" vType="moped" speedFactor="1.26" vaporized=""/>
    <tripinfo id="mixed.28" depart="41.00" departLane="beg_0" departPos="2.20" departPosLat="-1.00" departSpeed="0.00" departDelay="13.00" arrival="235.00" arrivalLane="end_0" arrivalPos="200.00" arrivalPosLat="0.68" arrivalSpeed="16.09" duration="194.00" routeLength="497.80" waitingTime="130.00" waitingCount="2" stopTime="0.00" timeLoss="163.80" rerouteNo="0" devices="tripinfo_mixed.28" vType="moped" speedFactor="1.41" vaporized=""/>
    <tripinfo id="mixed.4" depart="5.00" departLane="beg_1" departPos="2.20" departPosLat="0.93" departSpeed="0.00" departDelay="1.00" arrival="237.00" arrivalLane="end_0" arrivalPos="200.00" arrivalPosLat="-1.20" arrivalSpeed="7.11" duration="232.00" routeLength="497.80" waitingTime="154.00" waitingCount="1" stopTime="0.00" timeLoss="165.54" rerouteNo="0" devices="tripinfo_mixed.4" vType="moped" speedFactor="0.54" vaporized=""/>
    <tripinfo id="mixed.32" depart="48.00" departLane="beg_1" departPos="5.10" departPosLat="-0.60" departSpeed="0.00" departDelay="16.00" arrival="237.00" arrivalLane="end_1" arrivalPos="200.00" arrivalPosLat="-0.46" arrivalSpeed="13.89" duration="189.00" routeLength="494.90" waitingTime="127.00" waitingCount="2" stopTime="0.00" timeLoss="155.52" rerouteNo="0" devices="tripinfo_mixed.32" vType="car" speedFactor="1.08" vaporized=""/>
    <tripinfo id="mixed.10" depart="19.00" departLane="beg_1" departPos="2.20" departPosLat="-0.69" departSpeed="0.00" departDelay="9.00" arrival="238.00" arrivalLane="end_0" arrivalPos="200.00" arrivalPosLat="-1.20" arrivalSpeed="8.36" duration="219.00" routeLength="497.80" waitingTime="144.00" waitingCount="3" stopTime="0.00" timeLoss="168.29" rerouteNo="0" devices="tripinfo_mixed.10" vType="moped" speedFactor="0.71" vaporized=""/>
    <tripinfo id="mixed.43" depart="60.00" departLane="beg_1" departPos="5.10" departPosLat="0.44" departSpeed="0.00" departDelay="17.00" arrival="239.00" arrivalLane="end_1" arrivalPos="200.00" arrivalPosLat="0.54" arrivalSpeed="12.88" duration="179.00" routeLength="494.90" waitingTime="128.00" waitingCount="1" stopTime="0.00" timeLoss="143.11" rerouteNo="0" devices="tripinfo_mixed.43" vType="car" speedFactor="0.99" vaporized=""/>
    <tripinfo id="mixed.16" depart="20.00" departLane="beg_0" departPos="2.20" departPosLat="0.94" departSpeed="0.00" departDelay="4.00" arrival="240.00" arrivalLane="end_0" arrivalPos="200.00" arrivalPosLat="-1.20" arrivalSpeed="7.47" duration="220.00" routeLength="497.80" waitingTime="135.00" waitingCount="1" stopTime="0.00" timeLoss="155.18" rerouteNo="0" devices="tripinfo_mixed.16" vType="moped" speedFactor="0.56" vaporized=""/>
    <tripinfo id="mixed.19" depart="30.00" departLane="beg_1" departPos="5.10" departPosLat="-0.14" departSpeed="0.00" departDelay="11.00" arrival="241.00" arrivalLane="end_0" arrivalPos="200.00" arrivalPosLat="1.34" arrivalSpeed="12.99" duration="211.00" routeLength="494.90" waitingTime="140.00" waitingCount="2" stopTime="0.00" timeLoss="177.10" rerouteNo="0" devices="tripinfo_mixed.19" vType="car" speedFactor="1.06" vaporized=""/>
    <tripinfo id="mixed.42" depart="63.00" departLane="beg_1" departPos="5.10" departPosLat="-0.60" departSpeed="0.00" departDelay="21.00" arrival="241.00" arrivalLane="end_1" arrivalPos="200.00" arrivalPosLat="0.54" arrivalSpeed="13.76" duration="178.00" routeLength="494.90" waitingTime="126.00" waitingCount="1" stopTime="0.00" timeLoss="143.57" rerouteNo="0" devices="tripinfo_mixed.42" vType="car" speedFactor="1.05" vaporized=""/>
    <tripinfo id="mixed.17" depart="29.00" departLane="beg_0" departPos="5.10" departPosLat="0.15" departSpeed="0.00" departDelay="12.00" arrival="242.00" arrivalLane="end_0" arrivalPos="200.00" arrivalPosLat="0.30" arrivalSpeed="12.75" duration="213.00" routeLength="494.90" waitingTime="143.00" waitingCount="3" stopTime="0.00" timeLoss="177.09" rerouteNo="0" devices="tripinfo_mixed.17" vType="car" speedFactor="1.02" vaporized=""/>
    <tripinfo id="mixed.18" depart="27.00" departLane="beg_1" departPos="5.10" departPosLat="-0.20" departSpeed="0.00" departDelay="9.00" arrival="243.00" arrivalLane="end_0" arrivalPos="200.00" arrivalPosLat="0.74" arrivalSpeed="10.00" duration="216.00" routeLength="494.90" waitingTime="139.00" waitingCount="2" stopTime="0.00" timeLoss="168.17" rerouteNo="0" devices="tripinfo_mixed.18" vType="car" speedFactor="0.75" vaporized=""/>
    <tripinfo id="mixed.53" depart="77.00" departLane="beg_1" departPos="5.10" departPosLat="-0.63" departSpeed="0.00" departDelay="24.00" arrival="243.00" arrivalLane="end_1" arrivalPos="200.00" arrivalPosLat="0.54" arrivalSpeed="15.91" duration="166.00" routeLength="494.90" waitingTime="116.00" waitingCount="1" stopTime="0.00" timeLoss="136.32" rerouteNo="0" devices="tripinfo_mixed.53" vType="car" speedFactor="1.24" vaporized=""/>
    <tripinfo id="mixed.44" depart="61.00" departLane="beg_0" departPos="2.20" departPosLat="-0.45" departSpeed="0.00" departDelay="17.00" arrival="244.00" arrivalLane="end_1" arrivalPos="200.00" arrivalPosLat="-0.56" arrivalSpeed="16.09" duration="183.00" routeLength="497.80" waitingTime="125.00" waitingCount="1" stopTime="0.00" timeLoss="152.88" rerouteNo="0" devices="tripinfo_mixed.44" vType="moped" speedFactor="1.48" vaporized=""/>
    <tripinfo id="mixed.37" depart="51.00" departLane="beg_1" departPos="2.20" departPosLat="-0.97" departSpeed="0.00" departDelay="14.00" arrival="245.00" arrivalLane="end_0" arrivalPos="200.00" arrivalPosLat="-1.20" arrivalSpeed="15.50" duration="194.00" routeLength="497.80" waitingTime="132.00" waitingCount="1" stopTime="0.00" timeLoss="163.09" rerouteNo="0" devices="tripinfo_mixed.37" vType="moped" speedFactor="1.19" vaporized=""/>
    <tripinfo id="mixed.23" depart="32.00" departLane="beg_0" departPos="2.20" departPosLat="1.15" departSpeed="0.00" departDelay="9.00" arrival="245.00" arrivalLane="end_0" arrivalPos="200.00" arrivalPosLat="0.68" arrivalSpeed="10.94" duration="213.00" routeLength="497.80" waitingTime="137.00" waitingCount="2" stopTime="0.00" timeLoss="182.98" rerouteNo="0" devices="tripinfo_mixed.23" vType="moped" speedFactor="1.49" vaporized=""/>
    <tripinfo id="mixed.36" depart="48.00" departLane="beg_0" departPos="2.20" departPosLat="0.70" departSpeed="0.00" departDelay="12.00" arrival="246.00" arrivalLane="end_1" arrivalPos="200.00" arrivalPosLat="0.72" arrivalSpeed="11.63" duration="198.00" routeLength="497.80" waitingTime="135.00" waitingCount="1" stopTime="0.00" timeLoss="168.01" rerouteNo="0" devices="tripinfo_mixed.36" vType="moped" speedFactor="1.68" vaporized=""/>
    <tripinfo id="mixed.35" depart="53.00" departLane="beg_1" departPos="2.20" departPosLat="-0.41" departSpeed="0.00" departDelay="18.00" arrival="247.00" arrivalLane="end_0" arrivalPos="200.00" arrivalPosLat="0.68" arrivalSpeed="15.12" duration="194.00" routeLength="497.80" waitingTime="130.00" waitingCount="1" stopTime="0.00" timeLoss="163.43" rerouteNo="0" devices="tripinfo_mixed.35" vType="moped" speedFactor="1.25" vaporized=""/>
    <tripinfo id="mixed.39" depart="52.00" departLane="beg_0" departPos="2.20" departPosLat="0.10" departSpeed="0.00" departDelay="13.00" arrival="247.00" arrivalLane="end_0" arrivalPos="200.00" arrivalPosLat="-1.20" arrivalSpeed="13.97" duration="195.00" routeLength="497.80" waitingTime="131.00" waitingCount="1" stopTime="0.00" timeLoss="164.59" rerouteNo="0" devices="tripinfo_mixed.39" vType="moped" speedFactor="1.40" vaporized=""/>
</tripinfos>
