<?xml version="1.0" encoding="UTF-8"?>

<!-- generated on 02/09/19 22:03:27 by Eclipse SUMO Version 1.0.1
<configuration xmlns:xsi="http://www.w3.org/2001/XMLSchema-instance" xsi:noNamespaceSchemaLocation="http://sumo.dlr.de/xsd/sumoConfiguration.xsd">

    <input>
        <net-file value="./project/ramp.net.xml"/>
        <route-files value="./project/ramp.rou.xml"/>
        <additional-files value="./project/ramp.add.xml"/>
    </input>

    <time>
        <begin value="0"/>
    </time>

    <report>
        <verbose value="true"/>
        <no-step-log value="true"/>
    </report>

    <traci_server>
        <remote-port value="51163"/>
    </traci_server>

    <random_number>
        <seed value="848421429"/>
    </random_number>

    <gui_only>
        <quit-on-end value="true"/>
        <start value="true"/>
    </gui_only>

</configuration>
-->

<detector xmlns:xsi="http://www.w3.org/2001/XMLSchema-instance" xsi:noNamespaceSchemaLocation="http://sumo.dlr.de/xsd/det_e2_file.xsd">
   <interval begin="0.00" end="60.00" id="mainline_up_0" sampledSeconds="416.52" nVehEntered="22" nVehLeft="5" nVehSeen="22" meanSpeed="19.21" meanTimeLoss="1.74" meanOccupancy="1.60" maxOccupancy="4.10" meanMaxJamLengthInVehicles="0.00" meanMaxJamLengthInMeters="0.00" maxJamLengthInVehicles="0" maxJamLengthInMeters="0.00" jamLengthInVehiclesSum="0" jamLengthInMetersSum="0.00" meanHaltingDuration="0.00" maxHaltingDuration="0.00" haltingDurationSum="0.00" meanIntervalHaltingDuration="0.00" maxIntervalHaltingDuration="0.00" intervalHaltingDurationSum="0.00" startedHalts="0.00" meanVehicleNumber="7.08" maxVehicleNumber="18" />
   <interval begin="0.00" end="60.00" id="mainline_up_1" sampledSeconds="482.47" nVehEntered="30" nVehLeft="12" nVehSeen="30" meanSpeed="20.04" meanTimeLoss="1.91" meanOccupancy="1.86" maxOccupancy="4.33" meanMaxJamLengthInVehicles="0.00" meanMaxJamLengthInMeters="0.00" maxJamLengthInVehicles="0" maxJamLengthInMeters="0.00" jamLengthInVehiclesSum="0" jamLengthInMetersSum="0.00" meanHaltingDuration="0.00" maxHaltingDuration="0.00" haltingDurationSum="0.00" meanIntervalHaltingDuration="0.00" maxIntervalHaltingDuration="0.00" intervalHaltingDurationSum="0.00" startedHalts="0.00" meanVehicleNumber="8.22" maxVehicleNumber="19" />
   <interval begin="0.00" end="60.00" id="mainline_up_2" sampledSeconds="370.43" nVehEntered="21" nVehLeft="5" nVehSeen="21" meanSpeed="20.92" meanTimeLoss="2.03" meanOccupancy="1.42" maxOccupancy="3.87" meanMaxJamLengthInVehicles="0.00" meanMaxJamLengthInMeters="0.00" maxJamLengthInVehicles="0" maxJamLengthInMeters="0.00" jamLengthInVehiclesSum="0" jamLengthInMetersSum="0.00" meanHaltingDuration="0.00" maxHaltingDuration="0.00" haltingDurationSum="0.00" meanIntervalHaltingDuration="0.00" maxIntervalHaltingDuration="0.00" intervalHaltingDurationSum="0.00" startedHalts="0.00" meanVehicleNumber="6.30" maxVehicleNumber="17" />
   <interval begin="60.00" end="120.00" id="mainline_up_0" sampledSeconds="1632.51" nVehEntered="40" nVehLeft="28" nVehSeen="57" meanSpeed="19.34" meanTimeLoss="2.26" meanOccupancy="6.21" maxOccupancy="7.29" meanMaxJamLengthInVehicles="0.00" meanMaxJamLengthInMeters="0.00" maxJamLengthInVehicles="0" maxJamLengthInMeters="0.00" jamLengthInVehiclesSum="0" jamLengthInMetersSum="0.00" meanHaltingDuration="0.00" maxHaltingDuration="0.00" haltingDurationSum="0.00" meanIntervalHaltingDuration="0.00" maxIntervalHaltingDuration="0.00" intervalHaltingDurationSum="0.00" startedHalts="0.00" meanVehicleNumber="27.50" maxVehicleNumber="32" />
   <interval begin="60.00" end="120.00" id="mainline_up_1" sampledSeconds="1754.53" nVehEntered="58" nVehLeft="34" nVehSeen="76" meanSpeed="20.06" meanTimeLoss="2.19" meanOccupancy="6.69" maxOccupancy="9.54" meanMaxJamLengthInVehicles="0.00" meanMaxJamLengthInMeters="0.00" maxJamLengthInVehicles="0" maxJamLengthInMeters="0.00" jamLengthInVehiclesSum="0" jamLengthInMetersSum="0.00" meanHaltingDuration="0.00" maxHaltingDuration="0.00" haltingDurationSum="0.00" meanIntervalHaltingDuration="0.00" maxIntervalHaltingDuration="0.00" intervalHaltingDurationSum="0.00" startedHalts="0.00" meanVehicleNumber="29.43" maxVehicleNumber="42" />
   <interval begin="60.00" end="120.00" id="mainline_up_2" sampledSeconds="1968.21" nVehEntered="42" nVehLeft="9" nVehSeen="58" meanSpeed="21.76" meanTimeLoss="3.13" meanOccupancy="7.49" maxOccupancy="11.16" meanMaxJamLengthInVehicles="0.00" meanMaxJamLengthInMeters="0.00" maxJamLengthInVehicles="0" maxJamLengthInMeters="0.00" jamLengthInVehiclesSum="0" jamLengthInMetersSum="0.00" meanHaltingDuration="0.00" maxHaltingDuration="0.00" haltingDurationSum="0.00" meanIntervalHaltingDuration="0.00" maxIntervalHaltingDuration="0.00" intervalHaltingDurationSum="0.00" startedHalts="0.00" meanVehicleNumber="33.00" maxVehicleNumber="49" />
   <interval begin="120.00" end="180.00" id="mainline_up_0" sampledSeconds="2053.22" nVehEntered="34" nVehLeft="26" nVehSeen="63" meanSpeed="18.37" meanTimeLoss="3.19" meanOccupancy="7.79" maxOccupancy="8.42" meanMaxJamLengthInVehicles="0.00" meanMaxJamLengthInMeters="0.00" maxJamLengthInVehicles="0" maxJamLengthInMeters="0.00" jamLengthInVehiclesSum="0" jamLengthInMetersSum="0.00" meanHaltingDuration="0.00" maxHaltingDuration="0.00" haltingDurationSum="0.00" meanIntervalHaltingDuration="0.00" maxIntervalHaltingDuration="0.00" intervalHaltingDurationSum="0.00" startedHalts="0.00" meanVehicleNumber="34.55" maxVehicleNumber="38" />
   <interval begin="120.00" end="180.00" id="mainline_up_1" sampledSeconds="2449.50" nVehEntered="54" nVehLeft="49" nVehSeen="96" meanSpeed="19.73" meanTimeLoss="2.39" meanOccupancy="9.29" maxOccupancy="10.70" meanMaxJamLengthInVehicles="0.00" meanMaxJamLengthInMeters="0.00" maxJamLengthInVehicles="0" maxJamLengthInMeters="0.00" jamLengthInVehiclesSum="0" jamLengthInMetersSum="0.00" meanHaltingDuration="0.00" maxHaltingDuration="0.00" haltingDurationSum="0.00" meanIntervalHaltingDuration="0.00" maxIntervalHaltingDuration="0.00" intervalHaltingDurationSum="0.00" startedHalts="0.00" meanVehicleNumber="41.23" maxVehicleNumber="48" />
   <interval begin="120.00" end="180.00" id="mainline_up_2" sampledSeconds="3260.60" nVehEntered="45" nVehLeft="43" nVehSeen="94" meanSpeed="21.82" meanTimeLoss="3.16" meanOccupancy="12.33" maxOccupancy="13.19" meanMaxJamLengthInVehicles="0.00" meanMaxJamLengthInMeters="0.00" maxJamLengthInVehicles="0" maxJamLengthInMeters="0.00" jamLengthInVehiclesSum="0" jamLengthInMetersSum="0.00" meanHaltingDuration="0.00" maxHaltingDuration="0.00" haltingDurationSum="0.00" meanIntervalHaltingDuration="0.00" maxIntervalHaltingDuration="0.00" intervalHaltingDurationSum="0.00" startedHalts="0.00" meanVehicleNumber="54.77" maxVehicleNumber="58" />
   <interval begin="180.00" end="240.00" id="mainline_up_0" sampledSeconds="2227.39" nVehEntered="33" nVehLeft="33" nVehSeen="70" meanSpeed="17.91" meanTimeLoss="4.27" meanOccupancy="8.45" maxOccupancy="9.11" meanMaxJamLengthInVehicles="0.00" meanMaxJamLengthInMeters="0.00" maxJamLengthInVehicles="0" maxJamLengthInMeters="0.00" jamLengthInVehiclesSum="0" jamLengthInMetersSum="0.00" meanHaltingDuration="0.00" maxHaltingDuration="0.00" haltingDurationSum="0.00" meanIntervalHaltingDuration="0.00" maxIntervalHaltingDuration="0.00" intervalHaltingDurationSum="0.00" startedHalts="0.00" meanVehicleNumber="37.42" maxVehicleNumber="40" />
   <interval begin="180.00" end="240.00" id="mainline_up_1" sampledSeconds="2843.28" nVehEntered="59" nVehLeft="56" nVehSeen="106" meanSpeed="18.79" meanTimeLoss="3.57" meanOccupancy="10.77" maxOccupancy="11.84" meanMaxJamLengthInVehicles="0.00" meanMaxJamLengthInMeters="0.00" maxJamLengthInVehicles="0" maxJamLengthInMeters="0.00" jamLengthInVehiclesSum="0" jamLengthInMetersSum="0.00" meanHaltingDuration="0.00" maxHaltingDuration="0.00" haltingDurationSum="0.00" meanIntervalHaltingDuration="0.00" maxIntervalHaltingDuration="0.00" intervalHaltingDurationSum="0.00" startedHalts="0.00" meanVehicleNumber="47.85" maxVehicleNumber="53" />
   <interval begin="180.00" end="240.00" id="mainline_up_2" sampledSeconds="3475.34" nVehEntered="52" nVehLeft="45" nVehSeen="103" meanSpeed="20.60" meanTimeLoss="3.80" meanOccupancy="13.14" maxOccupancy="13.89" meanMaxJamLengthInVehicles="0.00" meanMaxJamLengthInMeters="0.00" maxJamLengthInVehicles="0" maxJamLengthInMeters="0.00" jamLengthInVehiclesSum="0" jamLengthInMetersSum="0.00" meanHaltingDuration="0.00" maxHaltingDuration="0.00" haltingDurationSum="0.00" meanIntervalHaltingDuration="0.00" maxIntervalHaltingDuration="0.00" intervalHaltingDurationSum="0.00" startedHalts="0.00" meanVehicleNumber="58.42" maxVehicleNumber="61" />
   <interval begin="240.00" end="300.00" id="mainline_up_0" sampledSeconds="2400.90" nVehEntered="38" nVehLeft="35" nVehSeen="75" meanSpeed="17.60" meanTimeLoss="4.03" meanOccupancy="9.10" maxOccupancy="10.25" meanMaxJamLengthInVehicles="0.00" meanMaxJamLengthInMeters="0.00" maxJamLengthInVehicles="0" maxJamLengthInMeters="0.00" jamLengthInVehiclesSum="0" jamLengthInMetersSum="0.00" meanHaltingDuration="0.00" maxHaltingDuration="0.00" haltingDurationSum="0.00" meanIntervalHaltingDuration="0.00" maxIntervalHaltingDuration="0.00" intervalHaltingDurationSum="0.00" startedHalts="0.00" meanVehicleNumber="40.32" maxVehicleNumber="45" />
   <interval begin="240.00" end="300.00" id="mainline_up_1" sampledSeconds="3167.90" nVehEntered="63" nVehLeft="61" nVehSeen="113" meanSpeed="18.91" meanTimeLoss="3.87" meanOccupancy="11.99" maxOccupancy="13.43" meanMaxJamLengthInVehicles="0.00" meanMaxJamLengthInMeters="0.00" maxJamLengthInVehicles="0" maxJamLengthInMeters="0.00" jamLengthInVehiclesSum="0" jamLengthInMetersSum="0.00" meanHaltingDuration="0.00" maxHaltingDuration="0.00" haltingDurationSum="0.00" meanIntervalHaltingDuration="0.00" maxIntervalHaltingDuration="0.00" intervalHaltingDurationSum="0.00" startedHalts="0.00" meanVehicleNumber="53.28" maxVehicleNumber="59" />
   <interval begin="240.00" end="300.00" id="mainline_up_2" sampledSeconds="3481.19" nVehEntered="49" nVehLeft="41" nVehSeen="107" meanSpeed="20.28" meanTimeLoss="3.56" meanOccupancy="13.17" maxOccupancy="14.77" meanMaxJamLengthInVehicles="0.00" meanMaxJamLengthInMeters="0.00" maxJamLengthInVehicles="0" maxJamLengthInMeters="0.00" jamLengthInVehiclesSum="0" jamLengthInMetersSum="0.00" meanHaltingDuration="0.00" maxHaltingDuration="0.00" haltingDurationSum="0.00" meanIntervalHaltingDuration="0.00" maxIntervalHaltingDuration="0.00" intervalHaltingDurationSum="0.00" startedHalts="0.00" meanVehicleNumber="58.50" maxVehicleNumber="66" />
   <interval begin="300.00" end="360.00" id="mainline_up_0" sampledSeconds="2292.35" nVehEntered="42" nVehLeft="44" nVehSeen="82" meanSpeed="17.91" meanTimeLoss="3.27" meanOccupancy="8.68" maxOccupancy="9.56" meanMaxJamLengthInVehicles="0.00" meanMaxJamLengthInMeters="0.00" maxJamLengthInVehicles="0" maxJamLengthInMeters="0.00" jamLengthInVehiclesSum="0" jamLengthInMetersSum="0.00" meanHaltingDuration="0.00" maxHaltingDuration="0.00" haltingDurationSum="0.00" meanIntervalHaltingDuration="0.00" maxIntervalHaltingDuration="0.00" intervalHaltingDurationSum="0.00" startedHalts="0.00" meanVehicleNumber="38.55" maxVehicleNumber="42" />
   <interval begin="300.00" end="360.00" id="mainline_up_1" sampledSeconds="3100.17" nVehEntered="66" nVehLeft="70" nVehSeen="118" meanSpeed="18.93" meanTimeLoss="3.30" meanOccupancy="11.72" maxOccupancy="12.94" meanMaxJamLengthInVehicles="0.00" meanMaxJamLengthInMeters="0.00" maxJamLengthInVehicles="0" maxJamLengthInMeters="0.00" jamLengthInVehiclesSum="0" jamLengthInMetersSum="0.00" meanHaltingDuration="0.00" maxHaltingDuration="0.00" haltingDurationSum="0.00" meanIntervalHaltingDuration="0.00" maxIntervalHaltingDuration="0.00" intervalHaltingDurationSum="0.00" startedHalts="0.00" meanVehicleNumber="52.13" maxVehicleNumber="58" />
   <interval begin="300.00" end="360.00" id="mainline_up_2" sampledSeconds="3759.07" nVehEntered="49" nVehLeft="55" nVehSeen="115" meanSpeed="20.13" meanTimeLoss="3.80" meanOccupancy="14.21" maxOccupancy="15.29" meanMaxJamLengthInVehicles="0.00" meanMaxJamLengthInMeters="0.00" maxJamLengthInVehicles="0" maxJamLengthInMeters="0.00" jamLengthInVehiclesSum="0" jamLengthInMetersSum="0.00" meanHaltingDuration="0.00" maxHaltingDuration="0.00" haltingDurationSum="0.00" meanIntervalHaltingDuration="0.00" maxIntervalHaltingDuration="0.00" intervalHaltingDurationSum="0.00" startedHalts="0.00" meanVehicleNumber="63.23" maxVehicleNumber="68" />
   <interval begin="360.00" end="420.00" id="mainline_up_0" sampledSeconds="2377.10" nVehEntered="40" nVehLeft="42" nVehSeen="78" meanSpeed="18.14" meanTimeLoss="3.73" meanOccupancy="9.02" maxOccupancy="9.56" meanMaxJamLengthInVehicles="0.00" meanMaxJamLengthInMeters="0.00" maxJamLengthInVehicles="0" maxJamLengthInMeters="0.00" jamLengthInVehiclesSum="0" jamLengthInMetersSum="0.00" meanHaltingDuration="0.00" maxHaltingDuration="0.00" haltingDurationSum="0.00" meanIntervalHaltingDuration="0.00" maxIntervalHaltingDuration="0.00" intervalHaltingDurationSum="0.00" startedHalts="0.00" meanVehicleNumber="40.03" maxVehicleNumber="42" />
   <interval begin="360.00" end="420.00" id="mainline_up_1" sampledSeconds="3145.65" nVehEntered="58" nVehLeft="54" nVehSeen="106" meanSpeed="19.05" meanTimeLoss="3.84" meanOccupancy="11.90" maxOccupancy="12.52" meanMaxJamLengthInVehicles="0.00" meanMaxJamLengthInMeters="0.00" maxJamLengthInVehicles="0" maxJamLengthInMeters="0.00" jamLengthInVehiclesSum="0" jamLengthInMetersSum="0.00" meanHaltingDuration="0.00" maxHaltingDuration="0.00" haltingDurationSum="0.00" meanIntervalHaltingDuration="0.00" maxIntervalHaltingDuration="0.00" intervalHaltingDurationSum="0.00" startedHalts="0.00" meanVehicleNumber="52.88" maxVehicleNumber="56" />
   <interval begin="360.00" end="420.00" id="mainline_up_2" sampledSeconds="3573.93" nVehEntered="40" nVehLeft="43" nVehSeen="100" meanSpeed="20.36" meanTimeLoss="3.95" meanOccupancy="13.50" maxOccupancy="14.48" meanMaxJamLengthInVehicles="0.00" meanMaxJamLengthInMeters="0.00" maxJamLengthInVehicles="0" maxJamLengthInMeters="0.00" jamLengthInVehiclesSum="0" jamLengthInMetersSum="0.00" meanHaltingDuration="0.00" maxHaltingDuration="0.00" haltingDurationSum="0.00" meanIntervalHaltingDuration="0.00" maxIntervalHaltingDuration="0.00" intervalHaltingDurationSum="0.00" startedHalts="0.00" meanVehicleNumber="60.07" maxVehicleNumber="65" />
   <interval begin="420.00" end="480.00" id="mainline_up_0" sampledSeconds="2081.29" nVehEntered="34" nVehLeft="39" nVehSeen="70" meanSpeed="18.30" meanTimeLoss="3.79" meanOccupancy="7.89" maxOccupancy="8.65" meanMaxJamLengthInVehicles="0.00" meanMaxJamLengthInMeters="0.00" maxJamLengthInVehicles="0" maxJamLengthInMeters="0.00" jamLengthInVehiclesSum="0" jamLengthInMetersSum="0.00" meanHaltingDuration="0.00" maxHaltingDuration="0.00" haltingDurationSum="0.00" meanIntervalHaltingDuration="0.00" maxIntervalHaltingDuration="0.00" intervalHaltingDurationSum="0.00" startedHalts="0.00" meanVehicleNumber="34.95" maxVehicleNumber="38" />
   <interval begin="420.00" end="480.00" id="mainline_up_1" sampledSeconds="3158.37" nVehEntered="62" nVehLeft="61" nVehSeen="114" meanSpeed="19.21" meanTimeLoss="3.70" meanOccupancy="11.94" maxOccupancy="12.98" meanMaxJamLengthInVehicles="0.00" meanMaxJamLengthInMeters="0.00" maxJamLengthInVehicles="0" maxJamLengthInMeters="0.00" jamLengthInVehiclesSum="0" jamLengthInMetersSum="0.00" meanHaltingDuration="0.00" maxHaltingDuration="0.00" haltingDurationSum="0.00" meanIntervalHaltingDuration="0.00" maxIntervalHaltingDuration="0.00" intervalHaltingDurationSum="0.00" startedHalts="0.00" meanVehicleNumber="53.07" maxVehicleNumber="58" />
   <interval begin="420.00" end="480.00" id="mainline_up_2" sampledSeconds="3641.44" nVehEntered="51" nVehLeft="46" nVehSeen="108" meanSpeed="20.66" meanTimeLoss="3.65" meanOccupancy="13.77" maxOccupancy="14.62" meanMaxJamLengthInVehicles="0.00" meanMaxJamLengthInMeters="0.00" maxJamLengthInVehicles="0" maxJamLengthInMeters="0.00" jamLengthInVehiclesSum="0" jamLengthInMetersSum="0.00" meanHaltingDuration="0.00" maxHaltingDuration="0.00" haltingDurationSum="0.00" meanIntervalHaltingDuration="0.00" maxIntervalHaltingDuration="0.00" intervalHaltingDurationSum="0.00" startedHalts="0.00" meanVehicleNumber="61.32" maxVehicleNumber="66" />
   <interval begin="480.00" end="540.00" id="mainline_up_0" sampledSeconds="2216.42" nVehEntered="39" nVehLeft="30" nVehSeen="70" meanSpeed="18.43" meanTimeLoss="3.29" meanOccupancy="8.42" maxOccupancy="10.02" meanMaxJamLengthInVehicles="0.00" meanMaxJamLengthInMeters="0.00" maxJamLengthInVehicles="0" maxJamLengthInMeters="0.00" jamLengthInVehiclesSum="0" jamLengthInMetersSum="0.00" meanHaltingDuration="0.00" maxHaltingDuration="0.00" haltingDurationSum="0.00" meanIntervalHaltingDuration="0.00" maxIntervalHaltingDuration="0.00" intervalHaltingDurationSum="0.00" startedHalts="0.00" meanVehicleNumber="37.27" maxVehicleNumber="44" />
   <interval begin="480.00" end="540.00" id="mainline_up_1" sampledSeconds="3087.45" nVehEntered="57" nVehLeft="58" nVehSeen="110" meanSpeed="19.55" meanTimeLoss="3.39" meanOccupancy="11.67" maxOccupancy="12.98" meanMaxJamLengthInVehicles="0.00" meanMaxJamLengthInMeters="0.00" maxJamLengthInVehicles="0" maxJamLengthInMeters="0.00" jamLengthInVehiclesSum="0" jamLengthInMetersSum="0.00" meanHaltingDuration="0.00" maxHaltingDuration="0.00" haltingDurationSum="0.00" meanIntervalHaltingDuration="0.00" maxIntervalHaltingDuration="0.00" intervalHaltingDurationSum="0.00" startedHalts="0.00" meanVehicleNumber="51.97" maxVehicleNumber="57" />
   <interval begin="480.00" end="540.00" id="mainline_up_2" sampledSeconds="3485.35" nVehEntered="38" nVehLeft="50" nVehSeen="100" meanSpeed="20.89" meanTimeLoss="3.68" meanOccupancy="13.15" maxOccupancy="14.80" meanMaxJamLengthInVehicles="0.00" meanMaxJamLengthInMeters="0.00" maxJamLengthInVehicles="0" maxJamLengthInMeters="0.00" jamLengthInVehiclesSum="0" jamLengthInMetersSum="0.00" meanHaltingDuration="0.00" maxHaltingDuration="0.00" haltingDurationSum="0.00" meanIntervalHaltingDuration="0.00" maxIntervalHaltingDuration="0.00" intervalHaltingDurationSum="0.00" startedHalts="0.00" meanVehicleNumber="58.60" maxVehicleNumber="66" />
   <interval begin="540.00" end="600.00" id="mainline_up_0" sampledSeconds="2321.76" nVehEntered="39" nVehLeft="45" nVehSeen="79" meanSpeed="18.33" meanTimeLoss="3.08" meanOccupancy="8.79" maxOccupancy="9.79" meanMaxJamLengthInVehicles="0.00" meanMaxJamLengthInMeters="0.00" maxJamLengthInVehicles="0" maxJamLengthInMeters="0.00" jamLengthInVehiclesSum="0" jamLengthInMetersSum="0.00" meanHaltingDuration="0.00" maxHaltingDuration="0.00" haltingDurationSum="0.00" meanIntervalHaltingDuration="0.00" maxIntervalHaltingDuration="0.00" intervalHaltingDurationSum="0.00" startedHalts="0.00" meanVehicleNumber="39.08" maxVehicleNumber="43" />
   <interval begin="540.00" end="600.00" id="mainline_up_1" sampledSeconds="2907.14" nVehEntered="62" nVehLeft="65" nVehSeen="114" meanSpeed="19.59" meanTimeLoss="2.51" meanOccupancy="10.99" maxOccupancy="11.84" meanMaxJamLengthInVehicles="0.00" meanMaxJamLengthInMeters="0.00" maxJamLengthInVehicles="0" maxJamLengthInMeters="0.00" jamLengthInVehiclesSum="0" jamLengthInMetersSum="0.00" meanHaltingDuration="0.00" maxHaltingDuration="0.00" haltingDurationSum="0.00" meanIntervalHaltingDuration="0.00" maxIntervalHaltingDuration="0.00" intervalHaltingDurationSum="0.00" startedHalts="0.00" meanVehicleNumber="48.92" maxVehicleNumber="53" />
   <interval begin="540.00" end="600.00" id="mainline_up_2" sampledSeconds="3291.43" nVehEntered="49" nVehLeft="43" nVehSeen="99" meanSpeed="21.05" meanTimeLoss="2.88" meanOccupancy="12.44" maxOccupancy="13.41" meanMaxJamLengthInVehicles="0.00" meanMaxJamLengthInMeters="0.00" maxJamLengthInVehicles="0" maxJamLengthInMeters="0.00" jamLengthInVehiclesSum="0" jamLengthInMetersSum="0.00" meanHaltingDuration="0.00" maxHaltingDuration="0.00" haltingDurationSum="0.00" meanIntervalHaltingDuration="0.00" maxIntervalHaltingDuration="0.00" intervalHaltingDurationSum="0.00" startedHalts="0.00" meanVehicleNumber="55.37" maxVehicleNumber="59" />
   <interval begin="600.00" end="660.00" id="mainline_up_0" sampledSeconds="2261.00" nVehEntered="39" nVehLeft="32" nVehSeen="73" meanSpeed="18.11" meanTimeLoss="3.18" meanOccupancy="8.57" maxOccupancy="10.02" meanMaxJamLengthInVehicles="0.00" meanMaxJamLengthInMeters="0.00" maxJamLengthInVehicles="0" maxJamLengthInMeters="0.00" jamLengthInVehiclesSum="0" jamLengthInMetersSum="0.00" meanHaltingDuration="0.00" maxHaltingDuration="0.00" haltingDurationSum="0.00" meanIntervalHaltingDuration="0.00" maxIntervalHaltingDuration="0.00" intervalHaltingDurationSum="0.00" startedHalts="0.00" meanVehicleNumber="37.93" maxVehicleNumber="44" />
   <interval begin="600.00" end="660.00" id="mainline_up_1" sampledSeconds="3044.68" nVehEntered="60" nVehLeft="59" nVehSeen="109" meanSpeed="19.36" meanTimeLoss="3.13" meanOccupancy="11.52" maxOccupancy="12.75" meanMaxJamLengthInVehicles="0.00" meanMaxJamLengthInMeters="0.00" maxJamLengthInVehicles="0" maxJamLengthInMeters="0.00" jamLengthInVehiclesSum="0" jamLengthInMetersSum="0.00" meanHaltingDuration="0.00" maxHaltingDuration="0.00" haltingDurationSum="0.00" meanIntervalHaltingDuration="0.00" maxIntervalHaltingDuration="0.00" intervalHaltingDurationSum="0.00" startedHalts="0.00" meanVehicleNumber="51.15" maxVehicleNumber="57" />
   <interval begin="600.00" end="660.00" id="mainline_up_2" sampledSeconds="3544.97" nVehEntered="44" nVehLeft="44" nVehSeen="100" meanSpeed="20.64" meanTimeLoss="3.77" meanOccupancy="13.41" maxOccupancy="14.12" meanMaxJamLengthInVehicles="0.00" meanMaxJamLengthInMeters="0.00" maxJamLengthInVehicles="0" maxJamLengthInMeters="0.00" jamLengthInVehiclesSum="0" jamLengthInMetersSum="0.00" meanHaltingDuration="0.00" maxHaltingDuration="0.00" haltingDurationSum="0.00" meanIntervalHaltingDuration="0.00" maxIntervalHaltingDuration="0.00" intervalHaltingDurationSum="0.00" startedHalts="0.00" meanVehicleNumber="59.60" maxVehicleNumber="63" />
   <interval begin="660.00" end="720.00" id="mainline_up_0" sampledSeconds="2520.38" nVehEntered="36" nVehLeft="41" nVehSeen="77" meanSpeed="17.57" meanTimeLoss="4.36" meanOccupancy="9.53" maxOccupancy="10.73" meanMaxJamLengthInVehicles="0.05" meanMaxJamLengthInMeters="0.14" maxJamLengthInVehicles="1" maxJamLengthInMeters="3.12" jamLengthInVehiclesSum="3" jamLengthInMetersSum="8.39" meanHaltingDuration="4.00" maxHaltingDuration="4.00" haltingDurationSum="4.00" meanIntervalHaltingDuration="4.00" maxIntervalHaltingDuration="4.00" intervalHaltingDurationSum="4.00" startedHalts="1.00" meanVehicleNumber="42.32" maxVehicleNumber="48" />
   <interval begin="660.00" end="720.00" id="mainline_up_1" sampledSeconds="3029.94" nVehEntered="57" nVehLeft="56" nVehSeen="107" meanSpeed="18.57" meanTimeLoss="4.46" meanOccupancy="11.44" maxOccupancy="12.30" meanMaxJamLengthInVehicles="0.00" meanMaxJamLengthInMeters="0.00" maxJamLengthInVehicles="0" maxJamLengthInMeters="0.00" jamLengthInVehiclesSum="0" jamLengthInMetersSum="0.00" meanHaltingDuration="0.00" maxHaltingDuration="0.00" haltingDurationSum="0.00" meanIntervalHaltingDuration="0.00" maxIntervalHaltingDuration="0.00" intervalHaltingDurationSum="0.00" startedHalts="0.00" meanVehicleNumber="50.88" maxVehicleNumber="54" />
   <interval begin="660.00" end="720.00" id="mainline_up_2" sampledSeconds="3470.65" nVehEntered="44" nVehLeft="42" nVehSeen="100" meanSpeed="19.98" meanTimeLoss="4.58" meanOccupancy="13.13" maxOccupancy="13.66" meanMaxJamLengthInVehicles="0.00" meanMaxJamLengthInMeters="0.00" maxJamLengthInVehicles="0" maxJamLengthInMeters="0.00" jamLengthInVehiclesSum="0" jamLengthInMetersSum="0.00" meanHaltingDuration="0.00" maxHaltingDuration="0.00" haltingDurationSum="0.00" meanIntervalHaltingDuration="0.00" maxIntervalHaltingDuration="0.00" intervalHaltingDurationSum="0.00" startedHalts="0.00" meanVehicleNumber="58.35" maxVehicleNumber="61" />
   <interval begin="720.00" end="780.00" id="mainline_up_0" sampledSeconds="2206.98" nVehEntered="33" nVehLeft="35" nVehSeen="69" meanSpeed="18.03" meanTimeLoss="3.91" meanOccupancy="8.35" maxOccupancy="9.34" meanMaxJamLengthInVehicles="0.00" meanMaxJamLengthInMeters="0.00" maxJamLengthInVehicles="0" maxJamLengthInMeters="0.00" jamLengthInVehiclesSum="0" jamLengthInMetersSum="0.00" meanHaltingDuration="0.00" maxHaltingDuration="0.00" haltingDurationSum="0.00" meanIntervalHaltingDuration="0.00" maxIntervalHaltingDuration="0.00" intervalHaltingDurationSum="0.00" startedHalts="0.00" meanVehicleNumber="37.13" maxVehicleNumber="41" />
   <interval begin="720.00" end="780.00" id="mainline_up_1" sampledSeconds="3061.60" nVehEntered="53" nVehLeft="55" nVehSeen="104" meanSpeed="18.90" meanTimeLoss="3.87" meanOccupancy="11.57" maxOccupancy="12.38" meanMaxJamLengthInVehicles="0.00" meanMaxJamLengthInMeters="0.00" maxJamLengthInVehicles="0" maxJamLengthInMeters="0.00" jamLengthInVehiclesSum="0" jamLengthInMetersSum="0.00" meanHaltingDuration="0.00" maxHaltingDuration="0.00" haltingDurationSum="0.00" meanIntervalHaltingDuration="0.00" maxIntervalHaltingDuration="0.00" intervalHaltingDurationSum="0.00" startedHalts="0.00" meanVehicleNumber="51.48" maxVehicleNumber="56" />
   <interval begin="720.00" end="780.00" id="mainline_up_2" sampledSeconds="3658.65" nVehEntered="47" nVehLeft="46" nVehSeen="105" meanSpeed="20.33" meanTimeLoss="4.06" meanOccupancy="13.83" maxOccupancy="14.34" meanMaxJamLengthInVehicles="0.00" meanMaxJamLengthInMeters="0.00" maxJamLengthInVehicles="0" maxJamLengthInMeters="0.00" jamLengthInVehiclesSum="0" jamLengthInMetersSum="0.00" meanHaltingDuration="0.00" maxHaltingDuration="0.00" haltingDurationSum="0.00" meanIntervalHaltingDuration="0.00" maxIntervalHaltingDuration="0.00" intervalHaltingDurationSum="0.00" startedHalts="0.00" meanVehicleNumber="61.52" maxVehicleNumber="64" />
   <interval begin="780.00" end="840.00" id="mainline_up_0" sampledSeconds="2422.56" nVehEntered="40" nVehLeft="30" nVehSeen="74" meanSpeed="18.12" meanTimeLoss="4.52" meanOccupancy="9.18" maxOccupancy="10.25" meanMaxJamLengthInVehicles="0.00" meanMaxJamLengthInMeters="0.00" maxJamLengthInVehicles="0" maxJamLengthInMeters="0.00" jamLengthInVehiclesSum="0" jamLengthInMetersSum="0.00" meanHaltingDuration="0.00" maxHaltingDuration="0.00" haltingDurationSum="0.00" meanIntervalHaltingDuration="0.00" maxIntervalHaltingDuration="0.00" intervalHaltingDurationSum="0.00" startedHalts="0.00" meanVehicleNumber="40.73" maxVehicleNumber="45" />
   <interval begin="780.00" end="840.00" id="mainline_up_1" sampledSeconds="2919.11" nVehEntered="43" nVehLeft="49" nVehSeen="92" meanSpeed="19.10" meanTimeLoss="3.88" meanOccupancy="11.05" maxOccupancy="12.28" meanMaxJamLengthInVehicles="0.00" meanMaxJamLengthInMeters="0.00" maxJamLengthInVehicles="0" maxJamLengthInMeters="0.00" jamLengthInVehiclesSum="0" jamLengthInMetersSum="0.00" meanHaltingDuration="0.00" maxHaltingDuration="0.00" haltingDurationSum="0.00" meanIntervalHaltingDuration="0.00" maxIntervalHaltingDuration="0.00" intervalHaltingDurationSum="0.00" startedHalts="0.00" meanVehicleNumber="49.02" maxVehicleNumber="54" />
   <interval begin="780.00" end="840.00" id="mainline_up_2" sampledSeconds="3596.55" nVehEntered="43" nVehLeft="44" nVehSeen="102" meanSpeed="20.89" meanTimeLoss="3.63" meanOccupancy="13.59" maxOccupancy="14.51" meanMaxJamLengthInVehicles="0.00" meanMaxJamLengthInMeters="0.00" maxJamLengthInVehicles="0" maxJamLengthInMeters="0.00" jamLengthInVehiclesSum="0" jamLengthInMetersSum="0.00" meanHaltingDuration="0.00" maxHaltingDuration="0.00" haltingDurationSum="0.00" meanIntervalHaltingDuration="0.00" maxIntervalHaltingDuration="0.00" intervalHaltingDurationSum="0.00" startedHalts="0.00" meanVehicleNumber="60.48" maxVehicleNumber="64" />
   <interval begin="840.00" end="900.00" id="mainline_up_0" sampledSeconds="2448.48" nVehEntered="38" nVehLeft="45" nVehSeen="82" meanSpeed="18.12" meanTimeLoss="3.78" meanOccupancy="9.27" maxOccupancy="10.25" meanMaxJamLengthInVehicles="0.00" meanMaxJamLengthInMeters="0.00" maxJamLengthInVehicles="0" maxJamLengthInMeters="0.00" jamLengthInVehiclesSum="0" jamLengthInMetersSum="0.00" meanHaltingDuration="0.00" maxHaltingDuration="0.00" haltingDurationSum="0.00" meanIntervalHaltingDuration="0.00" maxIntervalHaltingDuration="0.00" intervalHaltingDurationSum="0.00" startedHalts="0.00" meanVehicleNumber="41.17" maxVehicleNumber="46" />
   <interval begin="840.00" end="900.00" id="mainline_up_1" sampledSeconds="2921.65" nVehEntered="65" nVehLeft="60" nVehSeen="108" meanSpeed="19.14" meanTimeLoss="3.41" meanOccupancy="11.07" maxOccupancy="12.07" meanMaxJamLengthInVehicles="0.00" meanMaxJamLengthInMeters="0.00" maxJamLengthInVehicles="0" maxJamLengthInMeters="0.00" jamLengthInVehiclesSum="0" jamLengthInMetersSum="0.00" meanHaltingDuration="0.00" maxHaltingDuration="0.00" haltingDurationSum="0.00" meanIntervalHaltingDuration="0.00" maxIntervalHaltingDuration="0.00" intervalHaltingDurationSum="0.00" startedHalts="0.00" meanVehicleNumber="49.15" maxVehicleNumber="54" />
   <interval begin="840.00" end="900.00" id="mainline_up_2" sampledSeconds="3395.02" nVehEntered="47" nVehLeft="44" nVehSeen="105" meanSpeed="21.08" meanTimeLoss="3.37" meanOccupancy="12.83" maxOccupancy="14.34" meanMaxJamLengthInVehicles="0.00" meanMaxJamLengthInMeters="0.00" maxJamLengthInVehicles="0" maxJamLengthInMeters="0.00" jamLengthInVehiclesSum="0" jamLengthInMetersSum="0.00" meanHaltingDuration="0.00" maxHaltingDuration="0.00" haltingDurationSum="0.00" meanIntervalHaltingDuration="0.00" maxIntervalHaltingDuration="0.00" intervalHaltingDurationSum="0.00" startedHalts="0.00" meanVehicleNumber="57.05" maxVehicleNumber="64" />