<?xml version="1.0" encoding="UTF-8"?>

<!-- generated on 02/14/19 21:28:15 by Eclipse SUMO Version 1.0.1
<configuration xmlns:xsi="http://www.w3.org/2001/XMLSchema-instance" xsi:noNamespaceSchemaLocation="http://sumo.dlr.de/xsd/sumoConfiguration.xsd">

    <input>
        <net-file value="./project/ramp.net.xml"/>
        <route-files value="./project/ramp.rou.xml"/>
        <additional-files value="./project/ramp.add.xml"/>
    </input>

    <time>
        <begin value="0"/>
    </time>

    <report>
        <verbose value="true"/>
        <no-step-log value="true"/>
    </report>

    <traci_server>
        <remote-port value="51534"/>
    </traci_server>

    <random_number>
        <seed value="1689525355"/>
    </random_number>

    <gui_only>
        <quit-on-end value="true"/>
        <start value="true"/>
    </gui_only>

</configuration>
-->

<detector xmlns:xsi="http://www.w3.org/2001/XMLSchema-instance" xsi:noNamespaceSchemaLocation="http://sumo.dlr.de/xsd/det_e1_file.xsd">
    <interval begin="0.00" end="60.00" id="mainline_eval_0_0" nVehContrib="1" flow="60.00" occupancy="0.34" speed="24.57" length="5.00" nVehEntered="1"/>
    <interval begin="0.00" end="60.00" id="mainline_eval_0_1" nVehContrib="0" flow="0.00" occupancy="0.00" speed="-1.00" length="-1.00" nVehEntered="0"/>
    <interval begin="0.00" end="60.00" id="mainline_eval_0_2" nVehContrib="0" flow="0.00" occupancy="0.00" speed="-1.00" length="-1.00" nVehEntered="0"/>
    <interval begin="0.00" end="60.00" id="mainline_eval_1_0" nVehContrib="0" flow="0.00" occupancy="0.00" speed="-1.00" length="-1.00" nVehEntered="0"/>
    <interval begin="0.00" end="60.00" id="mainline_eval_1_1" nVehContrib="0" flow="0.00" occupancy="0.00" speed="-1.00" length="-1.00" nVehEntered="0"/>
    <interval begin="0.00" end="60.00" id="mainline_eval_1_2" nVehContrib="0" flow="0.00" occupancy="0.00" speed="-1.00" length="-1.00" nVehEntered="0"/>
    <interval begin="0.00" end="60.00" id="mainline_eval_2_0" nVehContrib="0" flow="0.00" occupancy="0.00" speed="-1.00" length="-1.00" nVehEntered="0"/>
    <interval begin="0.00" end="60.00" id="mainline_eval_2_1" nVehContrib="0" flow="0.00" occupancy="0.00" speed="-1.00" length="-1.00" nVehEntered="0"/>
    <interval begin="0.00" end="60.00" id="mainline_eval_2_2" nVehContrib="0" flow="0.00" occupancy="0.00" speed="-1.00" length="-1.00" nVehEntered="0"/>
    <interval begin="0.00" end="60.00" id="mainline_eval_3_0" nVehContrib="0" flow="0.00" occupancy="0.00" speed="-1.00" length="-1.00" nVehEntered="0"/>
    <interval begin="0.00" end="60.00" id="mainline_eval_3_1" nVehContrib="0" flow="0.00" occupancy="0.00" speed="-1.00" length="-1.00" nVehEntered="0"/>
    <interval begin="0.00" end="60.00" id="mainline_eval_3_2" nVehContrib="0" flow="0.00" occupancy="0.00" speed="-1.00" length="-1.00" nVehEntered="0"/>
    <interval begin="0.00" end="60.00" id="mainline_eval_3_3" nVehContrib="0" flow="0.00" occupancy="0.00" speed="-1.00" length="-1.00" nVehEntered="0"/>
    <interval begin="0.00" end="60.00" id="mainline_eval_4_0" nVehContrib="0" flow="0.00" occupancy="0.00" speed="-1.00" length="-1.00" nVehEntered="0"/>
    <interval begin="0.00" end="60.00" id="mainline_eval_4_1" nVehContrib="0" flow="0.00" occupancy="0.00" speed="-1.00" length="-1.00" nVehEntered="0"/>
    <interval begin="0.00" end="60.00" id="mainline_eval_4_2" nVehContrib="0" flow="0.00" occupancy="0.00" speed="-1.00" length="-1.00" nVehEntered="0"/>
    <interval begin="0.00" end="60.00" id="mainline_eval_4_3" nVehContrib="0" flow="0.00" occupancy="0.00" speed="-1.00" length="-1.00" nVehEntered="0"/>
    <interval begin="0.00" end="60.00" id="mainline_eval_5_0" nVehContrib="0" flow="0.00" occupancy="0.00" speed="-1.00" length="-1.00" nVehEntered="0"/>
    <interval begin="0.00" end="60.00" id="mainline_eval_5_1" nVehContrib="0" flow="0.00" occupancy="0.00" speed="-1.00" length="-1.00" nVehEntered="0"/>
    <interval begin="0.00" end="60.00" id="mainline_eval_5_2" nVehContrib="0" flow="0.00" occupancy="0.00" speed="-1.00" length="-1.00" nVehEntered="0"/>
    <interval begin="0.00" end="60.00" id="mainline_eval_6_0" nVehContrib="0" flow="0.00" occupancy="0.00" speed="-1.00" length="-1.00" nVehEntered="0"/>
    <interval begin="0.00" end="60.00" id="mainline_eval_6_1" nVehContrib="0" flow="0.00" occupancy="0.00" speed="-1.00" length="-1.00" nVehEntered="0"/>
    <interval begin="0.00" end="60.00" id="mainline_eval_6_2" nVehContrib="0" flow="0.00" occupancy="0.00" speed="-1.00" length="-1.00" nVehEntered="0"/>
    <interval begin="60.00" end="120.00" id="mainline_eval_0_0" nVehContrib="10" flow="600.00" occupancy="4.28" speed="19.56" length="5.00" nVehEntered="10"/>
    <interval begin="60.00" end="120.00" id="mainline_eval_0_1" nVehContrib="14" flow="840.00" occupancy="5.58" speed="21.12" length="5.00" nVehEntered="14"/>
    <interval begin="60.00" end="120.00" id="mainline_eval_0_2" nVehContrib="23" flow="1380.00" occupancy="8.69" speed="22.30" length="5.00" nVehEntered="23"/>
    <interval begin="60.00" end="120.00" id="mainline_eval_1_0" nVehContrib="9" flow="540.00" occupancy="3.57" speed="21.21" length="5.00" nVehEntered="9"/>
    <interval begin="60.00" end="120.00" id="mainline_eval_1_1" nVehContrib="9" flow="540.00" occupancy="3.36" speed="22.40" length="5.00" nVehEntered="9"/>
    <interval begin="60.00" end="120.00" id="mainline_eval_1_2" nVehContrib="13" flow="780.00" occupancy="4.54" speed="23.94" length="5.00" nVehEntered="13"/>
    <interval begin="60.00" end="120.00" id="mainline_eval_2_0" nVehContrib="4" flow="240.00" occupancy="1.48" speed="22.63" length="5.00" nVehEntered="4"/>
    <interval begin="60.00" end="120.00" id="mainline_eval_2_1" nVehContrib="5" flow="300.00" occupancy="1.85" speed="22.58" length="5.00" nVehEntered="5"/>
    <interval begin="60.00" end="120.00" id="mainline_eval_2_2" nVehContrib="7" flow="420.00" occupancy="2.38" speed="24.57" length="5.00" nVehEntered="7"/>
    <interval begin="60.00" end="120.00" id="mainline_eval_3_0" nVehContrib="0" flow="0.00" occupancy="0.00" speed="-1.00" length="-1.00" nVehEntered="0"/>
    <interval begin="60.00" end="120.00" id="mainline_eval_3_1" nVehContrib="4" flow="240.00" occupancy="1.46" speed="22.85" length="5.00" nVehEntered="4"/>
    <interval begin="60.00" end="120.00" id="mainline_eval_3_2" nVehContrib="2" flow="120.00" occupancy="0.73" speed="22.84" length="5.00" nVehEntered="2"/>
    <interval begin="60.00" end="120.00" id="mainline_eval_3_3" nVehContrib="5" flow="300.00" occupancy="1.69" speed="24.67" length="5.00" nVehEntered="5"/>
    <interval begin="60.00" end="120.00" id="mainline_eval_4_0" nVehContrib="0" flow="0.00" occupancy="0.00" speed="-1.00" length="-1.00" nVehEntered="0"/>
    <interval begin="60.00" end="120.00" id="mainline_eval_4_1" nVehContrib="3" flow="180.00" occupancy="1.09" speed="22.98" length="5.00" nVehEntered="3"/>
    <interval begin="60.00" end="120.00" id="mainline_eval_4_2" nVehContrib="1" flow="60.00" occupancy="0.35" speed="23.71" length="5.00" nVehEntered="1"/>
    <interval begin="60.00" end="120.00" id="mainline_eval_4_3" nVehContrib="4" flow="240.00" occupancy="1.35" speed="24.76" length="5.00" nVehEntered="4"/>
    <interval begin="60.00" end="120.00" id="mainline_eval_5_0" nVehContrib="2" flow="120.00" occupancy="0.71" speed="23.47" length="5.00" nVehEntered="2"/>
    <interval begin="60.00" end="120.00" id="mainline_eval_5_1" nVehContrib="1" flow="60.00" occupancy="0.35" speed="24.14" length="5.00" nVehEntered="1"/>
    <interval begin="60.00" end="120.00" id="mainline_eval_5_2" nVehContrib="2" flow="120.00" occupancy="0.64" speed="26.01" length="5.00" nVehEntered="2"/>
    <interval begin="60.00" end="120.00" id="mainline_eval_6_0" nVehContrib="1" flow="60.00" occupancy="0.34" speed="24.77" length="5.00" nVehEntered="1"/>
    <interval begin="60.00" end="120.00" id="mainline_eval_6_1" nVehContrib="0" flow="0.00" occupancy="0.00" speed="-1.00" length="-1.00" nVehEntered="0"/>
    <interval begin="60.00" end="120.00" id="mainline_eval_6_2" nVehContrib="0" flow="0.00" occupancy="0.00" speed="-1.00" length="-1.00" nVehEntered="0"/>
    <interval begin="120.00" end="180.00" id="mainline_eval_0_0" nVehContrib="19" flow="1140.00" occupancy="8.56" speed="18.59" length="5.00" nVehEntered="19"/>
    <interval begin="120.00" end="180.00" id="mainline_eval_0_1" nVehContrib="28" flow="1680.00" occupancy="12.31" speed="19.64" length="5.00" nVehEntered="29"/>
    <interval begin="120.00" end="180.00" id="mainline_eval_0_2" nVehContrib="32" flow="1920.00" occupancy="13.24" speed="20.64" length="5.00" nVehEntered="33"/>
    <interval begin="120.00" end="180.00" id="mainline_eval_1_0" nVehContrib="16" flow="960.00" occupancy="7.15" speed="18.70" length="5.00" nVehEntered="16"/>
    <interval begin="120.00" end="180.00" id="mainline_eval_1_1" nVehContrib="27" flow="1620.00" occupancy="11.76" speed="19.22" length="5.00" nVehEntered="27"/>
    <interval begin="120.00" end="180.00" id="mainline_eval_1_2" nVehContrib="34" flow="2040.00" occupancy="13.44" speed="21.14" length="5.00" nVehEntered="34"/>
    <interval begin="120.00" end="180.00" id="mainline_eval_2_0" nVehContrib="15" flow="900.00" occupancy="6.60" speed="19.09" length="5.00" nVehEntered="15"/>
    <interval begin="120.00" end="180.00" id="mainline_eval_2_1" nVehContrib="19" flow="1140.00" occupancy="8.71" speed="18.33" length="5.00" nVehEntered="19"/>
    <interval begin="120.00" end="180.00" id="mainline_eval_2_2" nVehContrib="26" flow="1560.00" occupancy="10.64" speed="20.79" length="5.00" nVehEntered="27"/>
    <interval begin="120.00" end="180.00" id="mainline_eval_3_0" nVehContrib="2" flow="120.00" occupancy="1.22" speed="13.68" length="5.00" nVehEntered="2"/>
    <interval begin="120.00" end="180.00" id="mainline_eval_3_1" nVehContrib="14" flow="840.00" occupancy="6.97" speed="18.46" length="5.00" nVehEntered="15"/>
    <interval begin="120.00" end="180.00" id="mainline_eval_3_2" nVehContrib="16" flow="960.00" occupancy="6.67" speed="20.27" length="5.00" nVehEntered="16"/>
    <interval begin="120.00" end="180.00" id="mainline_eval_3_3" nVehContrib="17" flow="1020.00" occupancy="7.01" speed="21.14" length="5.00" nVehEntered="18"/>
    <interval begin="120.00" end="180.00" id="mainline_eval_4_0" nVehContrib="1" flow="60.00" occupancy="0.52" speed="15.88" length="5.00" nVehEntered="1"/>
    <interval begin="120.00" end="180.00" id="mainline_eval_4_1" nVehContrib="16" flow="960.00" occupancy="7.07" speed="19.10" length="5.00" nVehEntered="16"/>
    <interval begin="120.00" end="180.00" id="mainline_eval_4_2" nVehContrib="16" flow="960.00" occupancy="6.57" speed="20.54" length="5.00" nVehEntered="16"/>
    <interval begin="120.00" end="180.00" id="mainline_eval_4_3" nVehContrib="17" flow="1020.00" occupancy="6.70" speed="21.47" length="5.00" nVehEntered="17"/>
    <interval begin="120.00" end="180.00" id="mainline_eval_5_0" nVehContrib="14" flow="840.00" occupancy="5.58" speed="21.01" length="5.00" nVehEntered="14"/>
    <interval begin="120.00" end="180.00" id="mainline_eval_5_1" nVehContrib="13" flow="780.00" occupancy="5.13" speed="21.30" length="5.00" nVehEntered="13"/>
    <interval begin="120.00" end="180.00" id="mainline_eval_5_2" nVehContrib="11" flow="660.00" occupancy="3.85" speed="23.87" length="5.00" nVehEntered="11"/>
    <interval begin="120.00" end="180.00" id="mainline_eval_6_0" nVehContrib="16" flow="960.00" occupancy="6.41" speed="20.92" length="5.00" nVehEntered="16"/>
    <interval begin="120.00" end="180.00" id="mainline_eval_6_1" nVehContrib="11" flow="660.00" occupancy="4.22" speed="21.83" length="5.00" nVehEntered="11"/>
    <interval begin="120.00" end="180.00" id="mainline_eval_6_2" nVehContrib="12" flow="720.00" occupancy="4.11" speed="24.38" length="5.00" nVehEntered="12"/>
    <interval begin="180.00" end="240.00" id="mainline_eval_0_0" nVehContrib="16" flow="960.00" occupancy="7.25" speed="18.51" length="5.00" nVehEntered="16"/>
    <interval begin="180.00" end="240.00" id="mainline_eval_0_1" nVehContrib="26" flow="1560.00" occupancy="10.95" speed="19.26" length="5.00" nVehEntered="25"/>
    <interval begin="180.00" end="240.00" id="mainline_eval_0_2" nVehContrib="35" flow="2100.00" occupancy="13.92" speed="20.68" length="5.00" nVehEntered="34"/>
    <interval begin="180.00" end="240.00" id="mainline_eval_1_0" nVehContrib="16" flow="960.00" occupancy="7.18" speed="18.73" length="5.00" nVehEntered="16"/>
    <interval begin="180.00" end="240.00" id="mainline_eval_1_1" nVehContrib="23" flow="1380.00" occupancy="9.79" speed="19.59" length="5.00" nVehEntered="23"/>
    <interval begin="180.00" end="240.00" id="mainline_eval_1_2" nVehContrib="32" flow="1920.00" occupancy="13.25" speed="20.19" length="5.00" nVehEntered="32"/>
    <interval begin="180.00" end="240.00" id="mainline_eval_2_0" nVehContrib="15" flow="900.00" occupancy="8.26" speed="17.54" length="5.00" nVehEntered="15"/>
    <interval begin="180.00" end="240.00" id="mainline_eval_2_1" nVehContrib="25" flow="1500.00" occupancy="11.50" speed="18.24" length="5.00" nVehEntered="26"/>
    <interval begin="180.00" end="240.00" id="mainline_eval_2_2" nVehContrib="31" flow="1860.00" occupancy="12.66" speed="20.49" length="5.00" nVehEntered="31"/>
    <interval begin="180.00" end="240.00" id="mainline_eval_3_0" nVehContrib="7" flow="420.00" occupancy="7.42" speed="9.02" length="5.00" nVehEntered="7"/>
    <interval begin="180.00" end="240.00" id="mainline_eval_3_1" nVehContrib="24" flow="1440.00" occupancy="21.66" speed="11.77" length="5.00" nVehEntered="23"/>
    <interval begin="180.00" end="240.00" id="mainline_eval_3_2" nVehContrib="33" flow="1980.00" occupancy="14.71" speed="18.79" length="5.00" nVehEntered="33"/>
    <interval begin="180.00" end="240.00" id="mainline_eval_3_3" nVehContrib="33" flow="1980.00" occupancy="12.84" speed="21.15" length="5.00" nVehEntered="32"/>
    <interval begin="180.00" end="240.00" id="mainline_eval_4_0" nVehContrib="0" flow="0.00" occupancy="0.00" speed="-1.00" length="-1.00" nVehEntered="0"/>
    <interval begin="180.00" end="240.00" id="mainline_eval_4_1" nVehContrib="28" flow="1680.00" occupancy="16.87" speed="14.27" length="5.00" nVehEntered="29"/>
    <interval begin="180.00" end="240.00" id="mainline_eval_4_2" nVehContrib="32" flow="1920.00" occupancy="15.86" speed="18.08" length="5.00" nVehEntered="32"/>
    <interval begin="180.00" end="240.00" id="mainline_eval_4_3" nVehContrib="35" flow="2100.00" occupancy="13.78" speed="21.19" length="5.00" nVehEntered="35"/>
    <interval begin="180.00" end="240.00" id="mainline_eval_5_0" nVehContrib="26" flow="1560.00" occupancy="12.59" speed="17.31" length="5.00" nVehEntered="26"/>
    <interval begin="180.00" end="240.00" id="mainline_eval_5_1" nVehContrib="30" flow="1800.00" occupancy="13.84" speed="18.17" length="5.00" nVehEntered="30"/>
    <interval begin="180.00" end="240.00" id="mainline_eval_5_2" nVehContrib="39" flow="2340.00" occupancy="15.77" speed="20.70" length="5.00" nVehEntered="39"/>
    <interval begin="180.00" end="240.00" id="mainline_eval_6_0" nVehContrib="27" flow="1620.00" occupancy="12.68" speed="17.82" length="5.00" nVehEntered="27"/>
    <interval begin="180.00" end="240.00" id="mainline_eval_6_1" nVehContrib="29" flow="1740.00" occupancy="13.07" speed="18.67" length="5.00" nVehEntered="29"/>
    <interval begin="180.00" end="240.00" id="mainline_eval_6_2" nVehContrib="39" flow="2340.00" occupancy="15.38" speed="21.18" length="5.00" nVehEntered="39"/>
    <interval begin="240.00" end="300.00" id="mainline_eval_0_0" nVehContrib="16" flow="960.00" occupancy="7.58" speed="17.75" length="5.00" nVehEntered="16"/>
    <interval begin="240.00" end="300.00" id="mainline_eval_0_1" nVehContrib="24" flow="1440.00" occupancy="11.21" speed="18.33" length="5.00" nVehEntered="25"/>
    <interval begin="240.00" end="300.00" id="mainline_eval_0_2" nVehContrib="36" flow="2160.00" occupancy="14.06" speed="21.43" length="5.00" nVehEntered="36"/>
    <interval begin="240.00" end="300.00" id="mainline_eval_1_0" nVehContrib="16" flow="960.00" occupancy="7.14" speed="18.73" length="5.00" nVehEntered="16"/>
    <interval begin="240.00" end="300.00" id="mainline_eval_1_1" nVehContrib="28" flow="1680.00" occupancy="12.06" speed="19.42" length="5.00" nVehEntered="28"/>
    <interval begin="240.00" end="300.00" id="mainline_eval_1_2" nVehContrib="36" flow="2160.00" occupancy="13.86" speed="21.67" length="5.00" nVehEntered="36"/>
    <interval begin="240.00" end="300.00" id="mainline_eval_2_0" nVehContrib="18" flow="1080.00" occupancy="8.67" speed="17.54" length="5.00" nVehEntered="19"/>
    <interval begin="240.00" end="300.00" id="mainline_eval_2_1" nVehContrib="28" flow="1680.00" occupancy="12.93" speed="18.12" length="5.00" nVehEntered="28"/>
    <interval begin="240.00" end="300.00" id="mainline_eval_2_2" nVehContrib="40" flow="2400.00" occupancy="16.30" speed="20.35" length="5.00" nVehEntered="39"/>
    <interval begin="240.00" end="300.00" id="mainline_eval_3_0" nVehContrib="5" flow="300.00" occupancy="5.31" speed="10.42" length="5.00" nVehEntered="10"/>
    <interval begin="240.00" end="300.00" id="mainline_eval_3_1" nVehContrib="26" flow="1560.00" occupancy="31.06" speed="9.73" length="5.00" nVehEntered="26"/>
    <interval begin="240.00" end="300.00" id="mainline_eval_3_2" nVehContrib="30" flow="1800.00" occupancy="16.47" speed="15.98" length="5.00" nVehEntered="30"/>
    <interval begin="240.00" end="300.00" id="mainline_eval_3_3" nVehContrib="39" flow="2340.00" occupancy="16.79" speed="19.40" length="5.00" nVehEntered="39"/>
    <interval begin="240.00" end="300.00" id="mainline_eval_4_0" nVehContrib="1" flow="60.00" occupancy="0.98" speed="8.49" length="5.00" nVehEntered="2"/>
    <interval begin="240.00" end="300.00" id="mainline_eval_4_1" nVehContrib="28" flow="1680.00" occupancy="20.85" speed="13.14" length="5.00" nVehEntered="30"/>
    <interval begin="240.00" end="300.00" id="mainline_eval_4_2" nVehContrib="31" flow="1860.00" occupancy="17.11" speed="16.68" length="5.00" nVehEntered="31"/>
    <interval begin="240.00" end="300.00" id="mainline_eval_4_3" nVehContrib="37" flow="2220.00" occupancy="16.02" speed="19.28" length="5.00" nVehEntered="37"/>
    <interval begin="240.00" end="300.00" id="mainline_eval_5_0" nVehContrib="27" flow="1620.00" occupancy="12.87" speed="17.64" length="5.00" nVehEntered="27"/>
    <interval begin="240.00" end="300.00" id="mainline_eval_5_1" nVehContrib="31" flow="1860.00" occupancy="14.15" speed="18.70" length="5.00" nVehEntered="32"/>
    <interval begin="240.00" end="300.00" id="mainline_eval_5_2" nVehContrib="34" flow="2040.00" occupancy="14.23" speed="19.99" length="5.00" nVehEntered="34"/>
    <interval begin="240.00" end="300.00" id="mainline_eval_6_0" nVehContrib="27" flow="1620.00" occupancy="12.66" speed="17.93" length="5.00" nVehEntered="27"/>
    <interval begin="240.00" end="300.00" id="mainline_eval_6_1" nVehContrib="30" flow="1800.00" occupancy="12.99" speed="19.27" length="5.00" nVehEntered="30"/>
    <interval begin="240.00" end="300.00" id="mainline_eval_6_2" nVehContrib="33" flow="1980.00" occupancy="13.55" speed="20.37" length="5.00" nVehEntered="33"/>
</detector>
