<?xml version="1.0" encoding="UTF-8"?>

<!-- generated on 02/22/19 16:47:06 by Eclipse SUMO Version 1.0.1
<configuration xmlns:xsi="http://www.w3.org/2001/XMLSchema-instance" xsi:noNamespaceSchemaLocation="http://sumo.dlr.de/xsd/sumoConfiguration.xsd">

    <input>
        <net-file value="./project/ramp.net.xml"/>
        <route-files value="./project/ramp.rou.xml"/>
        <additional-files value="./project/ramp.add.xml"/>
    </input>

    <time>
        <begin value="0"/>
    </time>

    <report>
        <verbose value="true"/>
        <no-step-log value="true"/>
    </report>

    <traci_server>
        <remote-port value="59561"/>
    </traci_server>

    <random_number>
        <seed value="211661479"/>
    </random_number>

    <gui_only>
        <quit-on-end value="true"/>
        <start value="true"/>
    </gui_only>

</configuration>
-->

<detector xmlns:xsi="http://www.w3.org/2001/XMLSchema-instance" xsi:noNamespaceSchemaLocation="http://sumo.dlr.de/xsd/det_e1_file.xsd">
    <interval begin="0.00" end="60.00" id="mainline_eval_0_0" nVehContrib="0" flow="0.00" occupancy="0.00" speed="-1.00" length="-1.00" nVehEntered="0"/>
    <interval begin="0.00" end="60.00" id="mainline_eval_0_1" nVehContrib="0" flow="0.00" occupancy="0.00" speed="-1.00" length="-1.00" nVehEntered="0"/>
    <interval begin="0.00" end="60.00" id="mainline_eval_0_2" nVehContrib="0" flow="0.00" occupancy="0.00" speed="-1.00" length="-1.00" nVehEntered="0"/>
    <interval begin="0.00" end="60.00" id="mainline_eval_1_0" nVehContrib="0" flow="0.00" occupancy="0.00" speed="-1.00" length="-1.00" nVehEntered="0"/>
    <interval begin="0.00" end="60.00" id="mainline_eval_1_1" nVehContrib="0" flow="0.00" occupancy="0.00" speed="-1.00" length="-1.00" nVehEntered="0"/>
    <interval begin="0.00" end="60.00" id="mainline_eval_1_2" nVehContrib="0" flow="0.00" occupancy="0.00" speed="-1.00" length="-1.00" nVehEntered="0"/>
    <interval begin="0.00" end="60.00" id="mainline_eval_2_0" nVehContrib="0" flow="0.00" occupancy="0.00" speed="-1.00" length="-1.00" nVehEntered="0"/>
    <interval begin="0.00" end="60.00" id="mainline_eval_2_1" nVehContrib="0" flow="0.00" occupancy="0.00" speed="-1.00" length="-1.00" nVehEntered="0"/>
    <interval begin="0.00" end="60.00" id="mainline_eval_2_2" nVehContrib="0" flow="0.00" occupancy="0.00" speed="-1.00" length="-1.00" nVehEntered="0"/>
    <interval begin="0.00" end="60.00" id="mainline_eval_3_0" nVehContrib="0" flow="0.00" occupancy="0.00" speed="-1.00" length="-1.00" nVehEntered="0"/>
    <interval begin="0.00" end="60.00" id="mainline_eval_3_1" nVehContrib="0" flow="0.00" occupancy="0.00" speed="-1.00" length="-1.00" nVehEntered="0"/>
    <interval begin="0.00" end="60.00" id="mainline_eval_3_2" nVehContrib="0" flow="0.00" occupancy="0.00" speed="-1.00" length="-1.00" nVehEntered="0"/>
    <interval begin="0.00" end="60.00" id="mainline_eval_3_3" nVehContrib="0" flow="0.00" occupancy="0.00" speed="-1.00" length="-1.00" nVehEntered="0"/>
    <interval begin="0.00" end="60.00" id="mainline_eval_4_0" nVehContrib="0" flow="0.00" occupancy="0.00" speed="-1.00" length="-1.00" nVehEntered="0"/>
    <interval begin="0.00" end="60.00" id="mainline_eval_4_1" nVehContrib="0" flow="0.00" occupancy="0.00" speed="-1.00" length="-1.00" nVehEntered="0"/>
    <interval begin="0.00" end="60.00" id="mainline_eval_4_2" nVehContrib="0" flow="0.00" occupancy="0.00" speed="-1.00" length="-1.00" nVehEntered="0"/>
    <interval begin="0.00" end="60.00" id="mainline_eval_4_3" nVehContrib="0" flow="0.00" occupancy="0.00" speed="-1.00" length="-1.00" nVehEntered="0"/>
    <interval begin="0.00" end="60.00" id="mainline_eval_5_0" nVehContrib="0" flow="0.00" occupancy="0.00" speed="-1.00" length="-1.00" nVehEntered="0"/>
    <interval begin="0.00" end="60.00" id="mainline_eval_5_1" nVehContrib="0" flow="0.00" occupancy="0.00" speed="-1.00" length="-1.00" nVehEntered="0"/>
    <interval begin="0.00" end="60.00" id="mainline_eval_5_2" nVehContrib="0" flow="0.00" occupancy="0.00" speed="-1.00" length="-1.00" nVehEntered="0"/>
    <interval begin="0.00" end="60.00" id="mainline_eval_6_0" nVehContrib="0" flow="0.00" occupancy="0.00" speed="-1.00" length="-1.00" nVehEntered="0"/>
    <interval begin="0.00" end="60.00" id="mainline_eval_6_1" nVehContrib="0" flow="0.00" occupancy="0.00" speed="-1.00" length="-1.00" nVehEntered="0"/>
    <interval begin="0.00" end="60.00" id="mainline_eval_6_2" nVehContrib="0" flow="0.00" occupancy="0.00" speed="-1.00" length="-1.00" nVehEntered="0"/>
    <interval begin="60.00" end="120.00" id="mainline_eval_0_0" nVehContrib="10" flow="600.00" occupancy="4.61" speed="18.21" length="5.00" nVehEntered="10"/>
    <interval begin="60.00" end="120.00" id="mainline_eval_0_1" nVehContrib="17" flow="1020.00" occupancy="6.94" speed="20.75" length="5.00" nVehEntered="17"/>
    <interval begin="60.00" end="120.00" id="mainline_eval_0_2" nVehContrib="15" flow="900.00" occupancy="5.44" speed="23.12" length="5.00" nVehEntered="15"/>
    <interval begin="60.00" end="120.00" id="mainline_eval_1_0" nVehContrib="9" flow="540.00" occupancy="3.70" speed="20.56" length="5.00" nVehEntered="9"/>
    <interval begin="60.00" end="120.00" id="mainline_eval_1_1" nVehContrib="4" flow="240.00" occupancy="1.60" speed="20.96" length="5.00" nVehEntered="4"/>
    <interval begin="60.00" end="120.00" id="mainline_eval_1_2" nVehContrib="14" flow="840.00" occupancy="5.07" speed="23.09" length="5.00" nVehEntered="14"/>
    <interval begin="60.00" end="120.00" id="mainline_eval_2_0" nVehContrib="6" flow="360.00" occupancy="2.36" speed="21.50" length="5.00" nVehEntered="6"/>
    <interval begin="60.00" end="120.00" id="mainline_eval_2_1" nVehContrib="2" flow="120.00" occupancy="0.78" speed="21.54" length="5.00" nVehEntered="2"/>
    <interval begin="60.00" end="120.00" id="mainline_eval_2_2" nVehContrib="5" flow="300.00" occupancy="1.84" speed="22.65" length="5.00" nVehEntered="5"/>
    <interval begin="60.00" end="120.00" id="mainline_eval_3_0" nVehContrib="0" flow="0.00" occupancy="0.00" speed="-1.00" length="-1.00" nVehEntered="0"/>
    <interval begin="60.00" end="120.00" id="mainline_eval_3_1" nVehContrib="3" flow="180.00" occupancy="1.05" speed="23.93" length="5.00" nVehEntered="3"/>
    <interval begin="60.00" end="120.00" id="mainline_eval_3_2" nVehContrib="1" flow="60.00" occupancy="0.36" speed="23.15" length="5.00" nVehEntered="1"/>
    <interval begin="60.00" end="120.00" id="mainline_eval_3_3" nVehContrib="0" flow="0.00" occupancy="0.00" speed="-1.00" length="-1.00" nVehEntered="0"/>
    <interval begin="60.00" end="120.00" id="mainline_eval_4_0" nVehContrib="0" flow="0.00" occupancy="0.00" speed="-1.00" length="-1.00" nVehEntered="0"/>
    <interval begin="60.00" end="120.00" id="mainline_eval_4_1" nVehContrib="3" flow="180.00" occupancy="1.06" speed="23.69" length="5.00" nVehEntered="3"/>
    <interval begin="60.00" end="120.00" id="mainline_eval_4_2" nVehContrib="1" flow="60.00" occupancy="0.35" speed="23.59" length="5.00" nVehEntered="1"/>
    <interval begin="60.00" end="120.00" id="mainline_eval_4_3" nVehContrib="0" flow="0.00" occupancy="0.00" speed="-1.00" length="-1.00" nVehEntered="0"/>
    <interval begin="60.00" end="120.00" id="mainline_eval_5_0" nVehContrib="1" flow="60.00" occupancy="0.33" speed="25.63" length="5.00" nVehEntered="1"/>
    <interval begin="60.00" end="120.00" id="mainline_eval_5_1" nVehContrib="0" flow="0.00" occupancy="0.00" speed="-1.00" length="-1.00" nVehEntered="0"/>
    <interval begin="60.00" end="120.00" id="mainline_eval_5_2" nVehContrib="0" flow="0.00" occupancy="0.00" speed="-1.00" length="-1.00" nVehEntered="0"/>
    <interval begin="60.00" end="120.00" id="mainline_eval_6_0" nVehContrib="1" flow="60.00" occupancy="0.33" speed="24.98" length="5.00" nVehEntered="1"/>
    <interval begin="60.00" end="120.00" id="mainline_eval_6_1" nVehContrib="0" flow="0.00" occupancy="0.00" speed="-1.00" length="-1.00" nVehEntered="0"/>
    <interval begin="60.00" end="120.00" id="mainline_eval_6_2" nVehContrib="0" flow="0.00" occupancy="0.00" speed="-1.00" length="-1.00" nVehEntered="0"/>
    <interval begin="120.00" end="180.00" id="mainline_eval_0_0" nVehContrib="16" flow="960.00" occupancy="7.68" speed="17.60" length="5.00" nVehEntered="16"/>
    <interval begin="120.00" end="180.00" id="mainline_eval_0_1" nVehContrib="30" flow="1800.00" occupancy="13.42" speed="18.89" length="5.00" nVehEntered="30"/>
    <interval begin="120.00" end="180.00" id="mainline_eval_0_2" nVehContrib="34" flow="2040.00" occupancy="14.23" speed="19.98" length="5.00" nVehEntered="34"/>
    <interval begin="120.00" end="180.00" id="mainline_eval_1_0" nVehContrib="19" flow="1140.00" occupancy="8.79" speed="18.15" length="5.00" nVehEntered="19"/>
    <interval begin="120.00" end="180.00" id="mainline_eval_1_1" nVehContrib="24" flow="1440.00" occupancy="10.20" speed="19.64" length="5.00" nVehEntered="24"/>
    <interval begin="120.00" end="180.00" id="mainline_eval_1_2" nVehContrib="28" flow="1680.00" occupancy="11.51" speed="20.36" length="5.00" nVehEntered="28"/>
    <interval begin="120.00" end="180.00" id="mainline_eval_2_0" nVehContrib="16" flow="960.00" occupancy="8.01" speed="17.75" length="5.00" nVehEntered="17"/>
    <interval begin="120.00" end="180.00" id="mainline_eval_2_1" nVehContrib="18" flow="1080.00" occupancy="7.83" speed="19.53" length="5.00" nVehEntered="18"/>
    <interval begin="120.00" end="180.00" id="mainline_eval_2_2" nVehContrib="23" flow="1380.00" occupancy="8.76" speed="22.03" length="5.00" nVehEntered="23"/>
    <interval begin="120.00" end="180.00" id="mainline_eval_3_0" nVehContrib="0" flow="0.00" occupancy="0.00" speed="-1.00" length="-1.00" nVehEntered="0"/>
    <interval begin="120.00" end="180.00" id="mainline_eval_3_1" nVehContrib="14" flow="840.00" occupancy="6.94" speed="17.34" length="5.00" nVehEntered="14"/>
    <interval begin="120.00" end="180.00" id="mainline_eval_3_2" nVehContrib="17" flow="1020.00" occupancy="7.12" speed="20.13" length="5.00" nVehEntered="17"/>
    <interval begin="120.00" end="180.00" id="mainline_eval_3_3" nVehContrib="17" flow="1020.00" occupancy="6.35" speed="23.06" length="5.00" nVehEntered="18"/>
    <interval begin="120.00" end="180.00" id="mainline_eval_4_0" nVehContrib="0" flow="0.00" occupancy="0.00" speed="-1.00" length="-1.00" nVehEntered="0"/>
    <interval begin="120.00" end="180.00" id="mainline_eval_4_1" nVehContrib="14" flow="840.00" occupancy="6.33" speed="18.55" length="5.00" nVehEntered="14"/>
    <interval begin="120.00" end="180.00" id="mainline_eval_4_2" nVehContrib="15" flow="900.00" occupancy="6.03" speed="20.88" length="5.00" nVehEntered="15"/>
    <interval begin="120.00" end="180.00" id="mainline_eval_4_3" nVehContrib="16" flow="960.00" occupancy="5.76" speed="23.23" length="5.00" nVehEntered="16"/>
    <interval begin="120.00" end="180.00" id="mainline_eval_5_0" nVehContrib="14" flow="840.00" occupancy="5.90" speed="19.96" length="5.00" nVehEntered="14"/>
    <interval begin="120.00" end="180.00" id="mainline_eval_5_1" nVehContrib="13" flow="780.00" occupancy="5.28" speed="20.77" length="5.00" nVehEntered="13"/>
    <interval begin="120.00" end="180.00" id="mainline_eval_5_2" nVehContrib="12" flow="720.00" occupancy="4.22" speed="23.72" length="5.00" nVehEntered="12"/>
    <interval begin="120.00" end="180.00" id="mainline_eval_6_0" nVehContrib="13" flow="780.00" occupancy="5.50" speed="19.90" length="5.00" nVehEntered="13"/>
    <interval begin="120.00" end="180.00" id="mainline_eval_6_1" nVehContrib="11" flow="660.00" occupancy="4.35" speed="21.28" length="5.00" nVehEntered="11"/>
    <interval begin="120.00" end="180.00" id="mainline_eval_6_2" nVehContrib="13" flow="780.00" occupancy="4.67" speed="23.35" length="5.00" nVehEntered="13"/>
    <interval begin="180.00" end="240.00" id="mainline_eval_0_0" nVehContrib="17" flow="1020.00" occupancy="7.95" speed="17.95" length="5.00" nVehEntered="17"/>
    <interval begin="180.00" end="240.00" id="mainline_eval_0_1" nVehContrib="28" flow="1680.00" occupancy="11.76" speed="19.90" length="5.00" nVehEntered="28"/>
    <interval begin="180.00" end="240.00" id="mainline_eval_0_2" nVehContrib="35" flow="2100.00" occupancy="14.08" speed="20.79" length="5.00" nVehEntered="35"/>
    <interval begin="180.00" end="240.00" id="mainline_eval_1_0" nVehContrib="20" flow="1200.00" occupancy="9.66" speed="17.47" length="5.00" nVehEntered="20"/>
    <interval begin="180.00" end="240.00" id="mainline_eval_1_1" nVehContrib="25" flow="1500.00" occupancy="10.56" speed="19.77" length="5.00" nVehEntered="26"/>
    <interval begin="180.00" end="240.00" id="mainline_eval_1_2" nVehContrib="37" flow="2220.00" occupancy="16.75" speed="19.99" length="5.00" nVehEntered="38"/>
    <interval begin="180.00" end="240.00" id="mainline_eval_2_0" nVehContrib="17" flow="1020.00" occupancy="7.80" speed="17.39" length="5.00" nVehEntered="16"/>
    <interval begin="180.00" end="240.00" id="mainline_eval_2_1" nVehContrib="26" flow="1560.00" occupancy="11.59" speed="18.83" length="5.00" nVehEntered="26"/>
    <interval begin="180.00" end="240.00" id="mainline_eval_2_2" nVehContrib="32" flow="1920.00" occupancy="12.71" speed="21.03" length="5.00" nVehEntered="32"/>
    <interval begin="180.00" end="240.00" id="mainline_eval_3_0" nVehContrib="13" flow="780.00" occupancy="11.44" speed="9.79" length="5.00" nVehEntered="15"/>
    <interval begin="180.00" end="240.00" id="mainline_eval_3_1" nVehContrib="20" flow="1200.00" occupancy="35.42" speed="6.19" length="5.00" nVehEntered="21"/>
    <interval begin="180.00" end="240.00" id="mainline_eval_3_2" nVehContrib="33" flow="1980.00" occupancy="21.22" speed="15.07" length="5.00" nVehEntered="33"/>
    <interval begin="180.00" end="240.00" id="mainline_eval_3_3" nVehContrib="35" flow="2100.00" occupancy="16.66" speed="18.00" length="5.00" nVehEntered="34"/>
    <interval begin="180.00" end="240.00" id="mainline_eval_4_0" nVehContrib="0" flow="0.00" occupancy="0.00" speed="-1.00" length="-1.00" nVehEntered="1"/>
    <interval begin="180.00" end="240.00" id="mainline_eval_4_1" nVehContrib="27" flow="1620.00" occupancy="19.90" speed="12.52" length="5.00" nVehEntered="28"/>
    <interval begin="180.00" end="240.00" id="mainline_eval_4_2" nVehContrib="34" flow="2040.00" occupancy="17.97" speed="16.57" length="5.00" nVehEntered="34"/>
    <interval begin="180.00" end="240.00" id="mainline_eval_4_3" nVehContrib="35" flow="2100.00" occupancy="15.69" speed="19.01" length="5.00" nVehEntered="36"/>
    <interval begin="180.00" end="240.00" id="mainline_eval_5_0" nVehContrib="25" flow="1500.00" occupancy="11.55" speed="18.29" length="5.00" nVehEntered="25"/>
    <interval begin="180.00" end="240.00" id="mainline_eval_5_1" nVehContrib="28" flow="1680.00" occupancy="12.80" speed="18.93" length="5.00" nVehEntered="29"/>
    <interval begin="180.00" end="240.00" id="mainline_eval_5_2" nVehContrib="32" flow="1920.00" occupancy="13.48" speed="19.92" length="5.00" nVehEntered="32"/>
    <interval begin="180.00" end="240.00" id="mainline_eval_6_0" nVehContrib="23" flow="1380.00" occupancy="10.18" speed="18.94" length="5.00" nVehEntered="23"/>
    <interval begin="180.00" end="240.00" id="mainline_eval_6_1" nVehContrib="26" flow="1560.00" occupancy="10.95" speed="19.86" length="5.00" nVehEntered="26"/>
    <interval begin="180.00" end="240.00" id="mainline_eval_6_2" nVehContrib="32" flow="1920.00" occupancy="12.78" speed="20.89" length="5.00" nVehEntered="32"/>
    <interval begin="240.00" end="300.00" id="mainline_eval_0_0" nVehContrib="18" flow="1080.00" occupancy="8.52" speed="17.70" length="5.00" nVehEntered="18"/>
    <interval begin="240.00" end="300.00" id="mainline_eval_0_1" nVehContrib="26" flow="1560.00" occupancy="10.93" speed="19.90" length="5.00" nVehEntered="26"/>
    <interval begin="240.00" end="300.00" id="mainline_eval_0_2" nVehContrib="33" flow="1980.00" occupancy="13.18" speed="20.94" length="5.00" nVehEntered="33"/>
    <interval begin="240.00" end="300.00" id="mainline_eval_1_0" nVehContrib="14" flow="840.00" occupancy="6.44" speed="18.17" length="5.00" nVehEntered="14"/>
    <interval begin="240.00" end="300.00" id="mainline_eval_1_1" nVehContrib="26" flow="1560.00" occupancy="10.99" speed="19.73" length="5.00" nVehEntered="26"/>
    <interval begin="240.00" end="300.00" id="mainline_eval_1_2" nVehContrib="32" flow="1920.00" occupancy="13.07" speed="20.09" length="5.00" nVehEntered="31"/>
    <interval begin="240.00" end="300.00" id="mainline_eval_2_0" nVehContrib="18" flow="1080.00" occupancy="8.79" speed="17.15" length="5.00" nVehEntered="18"/>
    <interval begin="240.00" end="300.00" id="mainline_eval_2_1" nVehContrib="29" flow="1740.00" occupancy="13.09" speed="18.64" length="5.00" nVehEntered="29"/>
    <interval begin="240.00" end="300.00" id="mainline_eval_2_2" nVehContrib="36" flow="2160.00" occupancy="14.62" speed="20.56" length="5.00" nVehEntered="36"/>
    <interval begin="240.00" end="300.00" id="mainline_eval_3_0" nVehContrib="10" flow="600.00" occupancy="8.64" speed="11.19" length="5.00" nVehEntered="11"/>
    <interval begin="240.00" end="300.00" id="mainline_eval_3_1" nVehContrib="19" flow="1140.00" occupancy="27.23" speed="8.34" length="5.00" nVehEntered="18"/>
    <interval begin="240.00" end="300.00" id="mainline_eval_3_2" nVehContrib="31" flow="1860.00" occupancy="23.68" speed="11.67" length="5.00" nVehEntered="31"/>
    <interval begin="240.00" end="300.00" id="mainline_eval_3_3" nVehContrib="39" flow="2340.00" occupancy="16.81" speed="19.44" length="5.00" nVehEntered="39"/>
    <interval begin="240.00" end="300.00" id="mainline_eval_4_0" nVehContrib="0" flow="0.00" occupancy="0.00" speed="-1.00" length="-1.00" nVehEntered="0"/>
    <interval begin="240.00" end="300.00" id="mainline_eval_4_1" nVehContrib="29" flow="1740.00" occupancy="21.41" speed="11.63" length="5.00" nVehEntered="28"/>
    <interval begin="240.00" end="300.00" id="mainline_eval_4_2" nVehContrib="30" flow="1800.00" occupancy="18.26" speed="14.20" length="5.00" nVehEntered="31"/>
    <interval begin="240.00" end="300.00" id="mainline_eval_4_3" nVehContrib="40" flow="2400.00" occupancy="16.97" speed="19.49" length="5.00" nVehEntered="39"/>
    <interval begin="240.00" end="300.00" id="mainline_eval_5_0" nVehContrib="26" flow="1560.00" occupancy="13.13" speed="16.69" length="5.00" nVehEntered="26"/>
    <interval begin="240.00" end="300.00" id="mainline_eval_5_1" nVehContrib="34" flow="2040.00" occupancy="16.60" speed="16.81" length="5.00" nVehEntered="33"/>
    <interval begin="240.00" end="300.00" id="mainline_eval_5_2" nVehContrib="40" flow="2400.00" occupancy="16.58" speed="20.19" length="5.00" nVehEntered="40"/>
    <interval begin="240.00" end="300.00" id="mainline_eval_6_0" nVehContrib="26" flow="1560.00" occupancy="13.30" speed="17.13" length="5.00" nVehEntered="27"/>
    <interval begin="240.00" end="300.00" id="mainline_eval_6_1" nVehContrib="35" flow="2100.00" occupancy="17.12" speed="17.20" length="5.00" nVehEntered="35"/>
    <interval begin="240.00" end="300.00" id="mainline_eval_6_2" nVehContrib="37" flow="2220.00" occupancy="14.90" speed="20.79" length="5.00" nVehEntered="38"/>
    <interval begin="300.00" end="360.00" id="mainline_eval_0_0" nVehContrib="20" flow="1200.00" occupancy="10.16" speed="16.43" length="5.00" nVehEntered="20"/>
    <interval begin="300.00" end="360.00" id="mainline_eval_0_1" nVehContrib="24" flow="1440.00" occupancy="11.12" speed="18.16" length="5.00" nVehEntered="24"/>
    <interval begin="300.00" end="360.00" id="mainline_eval_0_2" nVehContrib="27" flow="1620.00" occupancy="12.94" speed="18.46" length="5.00" nVehEntered="27"/>
    <interval begin="300.00" end="360.00" id="mainline_eval_1_0" nVehContrib="18" flow="1080.00" occupancy="9.19" speed="16.37" length="5.00" nVehEntered="18"/>
    <interval begin="300.00" end="360.00" id="mainline_eval_1_1" nVehContrib="25" flow="1500.00" occupancy="12.56" speed="16.61" length="5.00" nVehEntered="25"/>
    <interval begin="300.00" end="360.00" id="mainline_eval_1_2" nVehContrib="33" flow="1980.00" occupancy="17.24" speed="16.30" length="5.00" nVehEntered="34"/>
    <interval begin="300.00" end="360.00" id="mainline_eval_2_0" nVehContrib="15" flow="900.00" occupancy="7.78" speed="16.10" length="5.00" nVehEntered="15"/>
    <interval begin="300.00" end="360.00" id="mainline_eval_2_1" nVehContrib="25" flow="1500.00" occupancy="12.47" speed="16.81" length="5.00" nVehEntered="26"/>
    <interval begin="300.00" end="360.00" id="mainline_eval_2_2" nVehContrib="31" flow="1860.00" occupancy="15.83" speed="16.33" length="5.00" nVehEntered="31"/>
    <interval begin="300.00" end="360.00" id="mainline_eval_3_0" nVehContrib="12" flow="720.00" occupancy="14.31" speed="9.46" length="5.00" nVehEntered="13"/>
    <interval begin="300.00" end="360.00" id="mainline_eval_3_1" nVehContrib="20" flow="1200.00" occupancy="30.73" speed="6.50" length="5.00" nVehEntered="21"/>
    <interval begin="300.00" end="360.00" id="mainline_eval_3_2" nVehContrib="26" flow="1560.00" occupancy="16.85" speed="14.79" length="5.00" nVehEntered="26"/>
    <interval begin="300.00" end="360.00" id="mainline_eval_3_3" nVehContrib="29" flow="1740.00" occupancy="14.36" speed="16.91" length="5.00" nVehEntered="29"/>
    <interval begin="300.00" end="360.00" id="mainline_eval_4_0" nVehContrib="1" flow="60.00" occupancy="0.52" speed="16.06" length="5.00" nVehEntered="2"/>
    <interval begin="300.00" end="360.00" id="mainline_eval_4_1" nVehContrib="28" flow="1680.00" occupancy="21.42" speed="11.80" length="5.00" nVehEntered="28"/>
    <interval begin="300.00" end="360.00" id="mainline_eval_4_2" nVehContrib="26" flow="1560.00" occupancy="13.81" speed="15.83" length="5.00" nVehEntered="25"/>
    <interval begin="300.00" end="360.00" id="mainline_eval_4_3" nVehContrib="32" flow="1920.00" occupancy="14.15" speed="18.96" length="5.00" nVehEntered="32"/>
    <interval begin="300.00" end="360.00" id="mainline_eval_5_0" nVehContrib="26" flow="1560.00" occupancy="12.24" speed="17.79" length="5.00" nVehEntered="26"/>
    <interval begin="300.00" end="360.00" id="mainline_eval_5_1" nVehContrib="29" flow="1740.00" occupancy="13.36" speed="18.19" length="5.00" nVehEntered="29"/>
    <interval begin="300.00" end="360.00" id="mainline_eval_5_2" nVehContrib="35" flow="2100.00" occupancy="14.25" speed="20.52" length="5.00" nVehEntered="35"/>
    <interval begin="300.00" end="360.00" id="mainline_eval_6_0" nVehContrib="26" flow="1560.00" occupancy="11.95" speed="17.42" length="5.00" nVehEntered="25"/>
    <interval begin="300.00" end="360.00" id="mainline_eval_6_1" nVehContrib="30" flow="1800.00" occupancy="14.21" speed="17.64" length="5.00" nVehEntered="30"/>
    <interval begin="300.00" end="360.00" id="mainline_eval_6_2" nVehContrib="37" flow="2220.00" occupancy="14.98" speed="20.64" length="5.00" nVehEntered="36"/>
    <interval begin="360.00" end="420.00" id="mainline_eval_0_0" nVehContrib="21" flow="1260.00" occupancy="11.11" speed="15.83" length="5.00" nVehEntered="21"/>
    <interval begin="360.00" end="420.00" id="mainline_eval_0_1" nVehContrib="23" flow="1380.00" occupancy="12.15" speed="17.27" length="5.00" nVehEntered="23"/>
    <interval begin="360.00" end="420.00" id="mainline_eval_0_2" nVehContrib="28" flow="1680.00" occupancy="13.55" speed="17.33" length="5.00" nVehEntered="29"/>
    <interval begin="360.00" end="420.00" id="mainline_eval_1_0" nVehContrib="18" flow="1080.00" occupancy="11.57" speed="14.59" length="5.00" nVehEntered="18"/>
    <interval begin="360.00" end="420.00" id="mainline_eval_1_1" nVehContrib="20" flow="1200.00" occupancy="12.20" speed="13.70" length="5.00" nVehEntered="21"/>
    <interval begin="360.00" end="420.00" id="mainline_eval_1_2" nVehContrib="29" flow="1740.00" occupancy="14.73" speed="16.32" length="5.00" nVehEntered="29"/>
    <interval begin="360.00" end="420.00" id="mainline_eval_2_0" nVehContrib="14" flow="840.00" occupancy="7.59" speed="15.48" length="5.00" nVehEntered="14"/>
    <interval begin="360.00" end="420.00" id="mainline_eval_2_1" nVehContrib="23" flow="1380.00" occupancy="13.90" speed="13.89" length="5.00" nVehEntered="22"/>
    <interval begin="360.00" end="420.00" id="mainline_eval_2_2" nVehContrib="23" flow="1380.00" occupancy="11.80" speed="16.24" length="5.00" nVehEntered="23"/>
    <interval begin="360.00" end="420.00" id="mainline_eval_3_0" nVehContrib="19" flow="1140.00" occupancy="14.60" speed="11.84" length="5.00" nVehEntered="21"/>
    <interval begin="360.00" end="420.00" id="mainline_eval_3_1" nVehContrib="12" flow="720.00" occupancy="31.60" speed="3.99" length="5.00" nVehEntered="13"/>
    <interval begin="360.00" end="420.00" id="mainline_eval_3_2" nVehContrib="26" flow="1560.00" occupancy="26.07" speed="10.08" length="5.00" nVehEntered="27"/>
    <interval begin="360.00" end="420.00" id="mainline_eval_3_3" nVehContrib="35" flow="2100.00" occupancy="21.86" speed="14.66" length="5.00" nVehEntered="35"/>
    <interval begin="360.00" end="420.00" id="mainline_eval_4_0" nVehContrib="9" flow="540.00" occupancy="5.74" speed="13.48" length="5.00" nVehEntered="10"/>
    <interval begin="360.00" end="420.00" id="mainline_eval_4_1" nVehContrib="19" flow="1140.00" occupancy="28.67" speed="6.96" length="5.00" nVehEntered="20"/>
    <interval begin="360.00" end="420.00" id="mainline_eval_4_2" nVehContrib="29" flow="1740.00" occupancy="26.60" speed="10.81" length="5.00" nVehEntered="30"/>
    <interval begin="360.00" end="420.00" id="mainline_eval_4_3" nVehContrib="35" flow="2100.00" occupancy="17.19" speed="17.30" length="5.00" nVehEntered="35"/>
    <interval begin="360.00" end="420.00" id="mainline_eval_5_0" nVehContrib="23" flow="1380.00" occupancy="10.66" speed="18.10" length="5.00" nVehEntered="23"/>
    <interval begin="360.00" end="420.00" id="mainline_eval_5_1" nVehContrib="32" flow="1920.00" occupancy="15.32" speed="17.52" length="5.00" nVehEntered="32"/>
    <interval begin="360.00" end="420.00" id="mainline_eval_5_2" nVehContrib="35" flow="2100.00" occupancy="14.73" speed="19.92" length="5.00" nVehEntered="35"/>
    <interval begin="360.00" end="420.00" id="mainline_eval_6_0" nVehContrib="23" flow="1380.00" occupancy="10.92" speed="17.75" length="5.00" nVehEntered="23"/>
    <interval begin="360.00" end="420.00" id="mainline_eval_6_1" nVehContrib="29" flow="1740.00" occupancy="14.06" speed="17.29" length="5.00" nVehEntered="29"/>
    <interval begin="360.00" end="420.00" id="mainline_eval_6_2" nVehContrib="35" flow="2100.00" occupancy="14.53" speed="20.18" length="5.00" nVehEntered="35"/>
    <interval begin="420.00" end="480.00" id="mainline_eval_0_0" nVehContrib="20" flow="1200.00" occupancy="12.36" speed="13.49" length="5.00" nVehEntered="20"/>
    <interval begin="420.00" end="480.00" id="mainline_eval_0_1" nVehContrib="18" flow="1080.00" occupancy="9.03" speed="16.76" length="5.00" nVehEntered="18"/>
    <interval begin="420.00" end="480.00" id="mainline_eval_0_2" nVehContrib="25" flow="1500.00" occupancy="12.66" speed="16.51" length="5.00" nVehEntered="25"/>
    <interval begin="420.00" end="480.00" id="mainline_eval_1_0" nVehContrib="13" flow="780.00" occupancy="6.85" speed="15.95" length="5.00" nVehEntered="13"/>
    <interval begin="420.00" end="480.00" id="mainline_eval_1_1" nVehContrib="21" flow="1260.00" occupancy="12.21" speed="14.50" length="5.00" nVehEntered="21"/>
    <interval begin="420.00" end="480.00" id="mainline_eval_1_2" nVehContrib="27" flow="1620.00" occupancy="13.57" speed="16.29" length="5.00" nVehEntered="26"/>
    <interval begin="420.00" end="480.00" id="mainline_eval_2_0" nVehContrib="23" flow="1380.00" occupancy="13.68" speed="15.12" length="5.00" nVehEntered="23"/>
    <interval begin="420.00" end="480.00" id="mainline_eval_2_1" nVehContrib="19" flow="1140.00" occupancy="11.16" speed="14.35" length="5.00" nVehEntered="20"/>
    <interval begin="420.00" end="480.00" id="mainline_eval_2_2" nVehContrib="28" flow="1680.00" occupancy="14.36" speed="16.25" length="5.00" nVehEntered="28"/>
    <interval begin="420.00" end="480.00" id="mainline_eval_3_0" nVehContrib="18" flow="1080.00" occupancy="15.39" speed="9.62" length="5.00" nVehEntered="20"/>
    <interval begin="420.00" end="480.00" id="mainline_eval_3_1" nVehContrib="18" flow="1080.00" occupancy="40.18" speed="4.14" length="5.00" nVehEntered="19"/>
    <interval begin="420.00" end="480.00" id="mainline_eval_3_2" nVehContrib="28" flow="1680.00" occupancy="24.20" speed="11.26" length="5.00" nVehEntered="29"/>
    <interval begin="420.00" end="480.00" id="mainline_eval_3_3" nVehContrib="30" flow="1800.00" occupancy="16.83" speed="15.32" length="5.00" nVehEntered="30"/>
    <interval begin="420.00" end="480.00" id="mainline_eval_4_0" nVehContrib="3" flow="180.00" occupancy="2.36" speed="10.91" length="5.00" nVehEntered="3"/>
    <interval begin="420.00" end="480.00" id="mainline_eval_4_1" nVehContrib="28" flow="1680.00" occupancy="26.44" speed="9.67" length="5.00" nVehEntered="29"/>
    <interval begin="420.00" end="480.00" id="mainline_eval_4_2" nVehContrib="29" flow="1740.00" occupancy="17.36" speed="14.14" length="5.00" nVehEntered="29"/>
    <interval begin="420.00" end="480.00" id="mainline_eval_4_3" nVehContrib="34" flow="2040.00" occupancy="18.24" speed="17.44" length="5.00" nVehEntered="35"/>
    <interval begin="420.00" end="480.00" id="mainline_eval_5_0" nVehContrib="32" flow="1920.00" occupancy="15.88" speed="18.02" length="5.00" nVehEntered="32"/>
    <interval begin="420.00" end="480.00" id="mainline_eval_5_1" nVehContrib="29" flow="1740.00" occupancy="12.53" speed="19.38" length="5.00" nVehEntered="30"/>
    <interval begin="420.00" end="480.00" id="mainline_eval_5_2" nVehContrib="35" flow="2100.00" occupancy="14.81" speed="19.78" length="5.00" nVehEntered="35"/>