<?xml version="1.0" encoding="UTF-8"?>

<!-- generated on 02/12/19 03:38:09 by Eclipse SUMO Version 1.0.1
<configuration xmlns:xsi="http://www.w3.org/2001/XMLSchema-instance" xsi:noNamespaceSchemaLocation="http://sumo.dlr.de/xsd/sumoConfiguration.xsd">

    <input>
        <net-file value="./project/ramp.net.xml"/>
        <route-files value="./project/ramp.rou.xml"/>
        <additional-files value="./project/ramp.add.xml"/>
    </input>

    <time>
        <begin value="0"/>
    </time>

    <report>
        <verbose value="true"/>
        <no-step-log value="true"/>
    </report>

    <traci_server>
        <remote-port value="52726"/>
    </traci_server>

    <random_number>
        <seed value="800889150"/>
    </random_number>

    <gui_only>
        <quit-on-end value="true"/>
        <start value="true"/>
    </gui_only>

</configuration>
-->

<detector xmlns:xsi="http://www.w3.org/2001/XMLSchema-instance" xsi:noNamespaceSchemaLocation="http://sumo.dlr.de/xsd/det_e1_file.xsd">
    <interval begin="0.00" end="60.00" id="mainline_eval_0_0" nVehContrib="0" flow="0.00" occupancy="0.00" speed="-1.00" length="-1.00" nVehEntered="0"/>
    <interval begin="0.00" end="60.00" id="mainline_eval_0_1" nVehContrib="1" flow="60.00" occupancy="0.38" speed="22.11" length="5.00" nVehEntered="1"/>
    <interval begin="0.00" end="60.00" id="mainline_eval_0_2" nVehContrib="0" flow="0.00" occupancy="0.00" speed="-1.00" length="-1.00" nVehEntered="0"/>
    <interval begin="0.00" end="60.00" id="mainline_eval_1_0" nVehContrib="0" flow="0.00" occupancy="0.00" speed="-1.00" length="-1.00" nVehEntered="0"/>
    <interval begin="0.00" end="60.00" id="mainline_eval_1_1" nVehContrib="0" flow="0.00" occupancy="0.00" speed="-1.00" length="-1.00" nVehEntered="0"/>
    <interval begin="0.00" end="60.00" id="mainline_eval_1_2" nVehContrib="0" flow="0.00" occupancy="0.00" speed="-1.00" length="-1.00" nVehEntered="0"/>
    <interval begin="0.00" end="60.00" id="mainline_eval_2_0" nVehContrib="0" flow="0.00" occupancy="0.00" speed="-1.00" length="-1.00" nVehEntered="0"/>
    <interval begin="0.00" end="60.00" id="mainline_eval_2_1" nVehContrib="0" flow="0.00" occupancy="0.00" speed="-1.00" length="-1.00" nVehEntered="0"/>
    <interval begin="0.00" end="60.00" id="mainline_eval_2_2" nVehContrib="0" flow="0.00" occupancy="0.00" speed="-1.00" length="-1.00" nVehEntered="0"/>
    <interval begin="0.00" end="60.00" id="mainline_eval_3_0" nVehContrib="0" flow="0.00" occupancy="0.00" speed="-1.00" length="-1.00" nVehEntered="0"/>
    <interval begin="0.00" end="60.00" id="mainline_eval_3_1" nVehContrib="0" flow="0.00" occupancy="0.00" speed="-1.00" length="-1.00" nVehEntered="0"/>
    <interval begin="0.00" end="60.00" id="mainline_eval_3_2" nVehContrib="0" flow="0.00" occupancy="0.00" speed="-1.00" length="-1.00" nVehEntered="0"/>
    <interval begin="0.00" end="60.00" id="mainline_eval_3_3" nVehContrib="0" flow="0.00" occupancy="0.00" speed="-1.00" length="-1.00" nVehEntered="0"/>
    <interval begin="0.00" end="60.00" id="mainline_eval_4_0" nVehContrib="0" flow="0.00" occupancy="0.00" speed="-1.00" length="-1.00" nVehEntered="0"/>
    <interval begin="0.00" end="60.00" id="mainline_eval_4_1" nVehContrib="0" flow="0.00" occupancy="0.00" speed="-1.00" length="-1.00" nVehEntered="0"/>
    <interval begin="0.00" end="60.00" id="mainline_eval_4_2" nVehContrib="0" flow="0.00" occupancy="0.00" speed="-1.00" length="-1.00" nVehEntered="0"/>
    <interval begin="0.00" end="60.00" id="mainline_eval_4_3" nVehContrib="0" flow="0.00" occupancy="0.00" speed="-1.00" length="-1.00" nVehEntered="0"/>
    <interval begin="0.00" end="60.00" id="mainline_eval_5_0" nVehContrib="0" flow="0.00" occupancy="0.00" speed="-1.00" length="-1.00" nVehEntered="0"/>
    <interval begin="0.00" end="60.00" id="mainline_eval_5_1" nVehContrib="0" flow="0.00" occupancy="0.00" speed="-1.00" length="-1.00" nVehEntered="0"/>
    <interval begin="0.00" end="60.00" id="mainline_eval_5_2" nVehContrib="0" flow="0.00" occupancy="0.00" speed="-1.00" length="-1.00" nVehEntered="0"/>
    <interval begin="0.00" end="60.00" id="mainline_eval_6_0" nVehContrib="0" flow="0.00" occupancy="0.00" speed="-1.00" length="-1.00" nVehEntered="0"/>
    <interval begin="0.00" end="60.00" id="mainline_eval_6_1" nVehContrib="0" flow="0.00" occupancy="0.00" speed="-1.00" length="-1.00" nVehEntered="0"/>
    <interval begin="0.00" end="60.00" id="mainline_eval_6_2" nVehContrib="0" flow="0.00" occupancy="0.00" speed="-1.00" length="-1.00" nVehEntered="0"/>
    <interval begin="60.00" end="120.00" id="mainline_eval_0_0" nVehContrib="14" flow="840.00" occupancy="5.92" speed="19.82" length="5.00" nVehEntered="14"/>
    <interval begin="60.00" end="120.00" id="mainline_eval_0_1" nVehContrib="15" flow="900.00" occupancy="5.89" speed="21.26" length="5.00" nVehEntered="15"/>
    <interval begin="60.00" end="120.00" id="mainline_eval_0_2" nVehContrib="19" flow="1140.00" occupancy="7.31" speed="21.68" length="5.00" nVehEntered="19"/>
    <interval begin="60.00" end="120.00" id="mainline_eval_1_0" nVehContrib="9" flow="540.00" occupancy="3.63" speed="20.73" length="5.00" nVehEntered="9"/>
    <interval begin="60.00" end="120.00" id="mainline_eval_1_1" nVehContrib="11" flow="660.00" occupancy="4.18" speed="22.00" length="5.00" nVehEntered="11"/>
    <interval begin="60.00" end="120.00" id="mainline_eval_1_2" nVehContrib="8" flow="480.00" occupancy="3.05" speed="21.88" length="5.00" nVehEntered="8"/>
    <interval begin="60.00" end="120.00" id="mainline_eval_2_0" nVehContrib="5" flow="300.00" occupancy="1.94" speed="21.46" length="5.00" nVehEntered="5"/>
    <interval begin="60.00" end="120.00" id="mainline_eval_2_1" nVehContrib="5" flow="300.00" occupancy="1.87" speed="22.36" length="5.00" nVehEntered="5"/>
    <interval begin="60.00" end="120.00" id="mainline_eval_2_2" nVehContrib="4" flow="240.00" occupancy="1.47" speed="22.62" length="5.00" nVehEntered="4"/>
    <interval begin="60.00" end="120.00" id="mainline_eval_3_0" nVehContrib="0" flow="0.00" occupancy="0.00" speed="-1.00" length="-1.00" nVehEntered="0"/>
    <interval begin="60.00" end="120.00" id="mainline_eval_3_1" nVehContrib="3" flow="180.00" occupancy="1.18" speed="21.29" length="5.00" nVehEntered="3"/>
    <interval begin="60.00" end="120.00" id="mainline_eval_3_2" nVehContrib="2" flow="120.00" occupancy="0.73" speed="22.76" length="5.00" nVehEntered="2"/>
    <interval begin="60.00" end="120.00" id="mainline_eval_3_3" nVehContrib="1" flow="60.00" occupancy="0.36" speed="22.86" length="5.00" nVehEntered="1"/>
    <interval begin="60.00" end="120.00" id="mainline_eval_4_0" nVehContrib="0" flow="0.00" occupancy="0.00" speed="-1.00" length="-1.00" nVehEntered="0"/>
    <interval begin="60.00" end="120.00" id="mainline_eval_4_1" nVehContrib="2" flow="120.00" occupancy="0.77" speed="21.60" length="5.00" nVehEntered="2"/>
    <interval begin="60.00" end="120.00" id="mainline_eval_4_2" nVehContrib="2" flow="120.00" occupancy="0.73" speed="22.86" length="5.00" nVehEntered="2"/>
    <interval begin="60.00" end="120.00" id="mainline_eval_4_3" nVehContrib="1" flow="60.00" occupancy="0.37" speed="22.79" length="5.00" nVehEntered="1"/>
    <interval begin="60.00" end="120.00" id="mainline_eval_5_0" nVehContrib="1" flow="60.00" occupancy="0.38" speed="21.71" length="5.00" nVehEntered="1"/>
    <interval begin="60.00" end="120.00" id="mainline_eval_5_1" nVehContrib="1" flow="60.00" occupancy="0.38" speed="22.10" length="5.00" nVehEntered="1"/>
    <interval begin="60.00" end="120.00" id="mainline_eval_5_2" nVehContrib="1" flow="60.00" occupancy="0.36" speed="23.04" length="5.00" nVehEntered="1"/>
    <interval begin="60.00" end="120.00" id="mainline_eval_6_0" nVehContrib="0" flow="0.00" occupancy="0.00" speed="-1.00" length="-1.00" nVehEntered="0"/>
    <interval begin="60.00" end="120.00" id="mainline_eval_6_1" nVehContrib="0" flow="0.00" occupancy="0.00" speed="-1.00" length="-1.00" nVehEntered="0"/>
    <interval begin="60.00" end="120.00" id="mainline_eval_6_2" nVehContrib="0" flow="0.00" occupancy="0.00" speed="-1.00" length="-1.00" nVehEntered="0"/>
    <interval begin="120.00" end="180.00" id="mainline_eval_0_0" nVehContrib="15" flow="900.00" occupancy="6.93" speed="18.12" length="5.00" nVehEntered="15"/>
    <interval begin="120.00" end="180.00" id="mainline_eval_0_1" nVehContrib="30" flow="1800.00" occupancy="12.74" speed="19.79" length="5.00" nVehEntered="30"/>
    <interval begin="120.00" end="180.00" id="mainline_eval_0_2" nVehContrib="33" flow="1980.00" occupancy="12.56" speed="21.93" length="5.00" nVehEntered="33"/>
    <interval begin="120.00" end="180.00" id="mainline_eval_1_0" nVehContrib="15" flow="900.00" occupancy="6.92" speed="18.14" length="5.00" nVehEntered="15"/>
    <interval begin="120.00" end="180.00" id="mainline_eval_1_1" nVehContrib="28" flow="1680.00" occupancy="11.78" speed="19.92" length="5.00" nVehEntered="28"/>
    <interval begin="120.00" end="180.00" id="mainline_eval_1_2" nVehContrib="34" flow="2040.00" occupancy="13.02" speed="21.79" length="5.00" nVehEntered="34"/>
    <interval begin="120.00" end="180.00" id="mainline_eval_2_0" nVehContrib="11" flow="660.00" occupancy="4.80" speed="19.19" length="5.00" nVehEntered="11"/>
    <interval begin="120.00" end="180.00" id="mainline_eval_2_1" nVehContrib="25" flow="1500.00" occupancy="9.88" speed="21.12" length="5.00" nVehEntered="25"/>
    <interval begin="120.00" end="180.00" id="mainline_eval_2_2" nVehContrib="25" flow="1500.00" occupancy="9.91" speed="21.84" length="5.00" nVehEntered="26"/>
    <interval begin="120.00" end="180.00" id="mainline_eval_3_0" nVehContrib="3" flow="180.00" occupancy="1.93" speed="12.95" length="5.00" nVehEntered="3"/>
    <interval begin="120.00" end="180.00" id="mainline_eval_3_1" nVehContrib="17" flow="1020.00" occupancy="8.89" speed="16.73" length="5.00" nVehEntered="17"/>
    <interval begin="120.00" end="180.00" id="mainline_eval_3_2" nVehContrib="22" flow="1320.00" occupancy="8.60" speed="21.34" length="5.00" nVehEntered="22"/>
    <interval begin="120.00" end="180.00" id="mainline_eval_3_3" nVehContrib="23" flow="1380.00" occupancy="8.83" speed="21.73" length="5.00" nVehEntered="23"/>
    <interval begin="120.00" end="180.00" id="mainline_eval_4_0" nVehContrib="1" flow="60.00" occupancy="0.63" speed="13.33" length="5.00" nVehEntered="1"/>
    <interval begin="120.00" end="180.00" id="mainline_eval_4_1" nVehContrib="18" flow="1080.00" occupancy="8.22" speed="18.46" length="5.00" nVehEntered="18"/>
    <interval begin="120.00" end="180.00" id="mainline_eval_4_2" nVehContrib="22" flow="1320.00" occupancy="8.61" speed="21.33" length="5.00" nVehEntered="22"/>
    <interval begin="120.00" end="180.00" id="mainline_eval_4_3" nVehContrib="22" flow="1320.00" occupancy="8.38" speed="21.89" length="5.00" nVehEntered="22"/>
    <interval begin="120.00" end="180.00" id="mainline_eval_5_0" nVehContrib="15" flow="900.00" occupancy="6.31" speed="19.89" length="5.00" nVehEntered="15"/>
    <interval begin="120.00" end="180.00" id="mainline_eval_5_1" nVehContrib="19" flow="1140.00" occupancy="7.46" speed="21.29" length="5.00" nVehEntered="19"/>
    <interval begin="120.00" end="180.00" id="mainline_eval_5_2" nVehContrib="16" flow="960.00" occupancy="6.04" speed="22.13" length="5.00" nVehEntered="16"/>
    <interval begin="120.00" end="180.00" id="mainline_eval_6_0" nVehContrib="15" flow="900.00" occupancy="6.20" speed="20.27" length="5.00" nVehEntered="15"/>
    <interval begin="120.00" end="180.00" id="mainline_eval_6_1" nVehContrib="18" flow="1080.00" occupancy="7.04" speed="21.35" length="5.00" nVehEntered="18"/>
    <interval begin="120.00" end="180.00" id="mainline_eval_6_2" nVehContrib="16" flow="960.00" occupancy="6.05" speed="22.09" length="5.00" nVehEntered="16"/>
    <interval begin="180.00" end="240.00" id="mainline_eval_0_0" nVehContrib="21" flow="1260.00" occupancy="9.36" speed="18.79" length="5.00" nVehEntered="21"/>
    <interval begin="180.00" end="240.00" id="mainline_eval_0_1" nVehContrib="27" flow="1620.00" occupancy="11.13" speed="20.34" length="5.00" nVehEntered="27"/>
    <interval begin="180.00" end="240.00" id="mainline_eval_0_2" nVehContrib="33" flow="1980.00" occupancy="12.81" speed="21.48" length="5.00" nVehEntered="33"/>
    <interval begin="180.00" end="240.00" id="mainline_eval_1_0" nVehContrib="21" flow="1260.00" occupancy="9.64" speed="18.20" length="5.00" nVehEntered="21"/>
    <interval begin="180.00" end="240.00" id="mainline_eval_1_1" nVehContrib="27" flow="1620.00" occupancy="11.63" speed="19.41" length="5.00" nVehEntered="27"/>
    <interval begin="180.00" end="240.00" id="mainline_eval_1_2" nVehContrib="31" flow="1860.00" occupancy="12.38" speed="20.87" length="5.00" nVehEntered="31"/>
    <interval begin="180.00" end="240.00" id="mainline_eval_2_0" nVehContrib="13" flow="780.00" occupancy="6.07" speed="17.93" length="5.00" nVehEntered="13"/>
    <interval begin="180.00" end="240.00" id="mainline_eval_2_1" nVehContrib="30" flow="1800.00" occupancy="12.73" speed="19.73" length="5.00" nVehEntered="30"/>
    <interval begin="180.00" end="240.00" id="mainline_eval_2_2" nVehContrib="34" flow="2040.00" occupancy="12.81" speed="21.54" length="5.00" nVehEntered="33"/>
    <interval begin="180.00" end="240.00" id="mainline_eval_3_0" nVehContrib="4" flow="240.00" occupancy="3.17" speed="10.83" length="5.00" nVehEntered="4"/>
    <interval begin="180.00" end="240.00" id="mainline_eval_3_1" nVehContrib="23" flow="1380.00" occupancy="16.15" speed="13.79" length="5.00" nVehEntered="23"/>
    <interval begin="180.00" end="240.00" id="mainline_eval_3_2" nVehContrib="26" flow="1560.00" occupancy="11.15" speed="19.83" length="5.00" nVehEntered="26"/>
    <interval begin="180.00" end="240.00" id="mainline_eval_3_3" nVehContrib="34" flow="2040.00" occupancy="13.24" speed="21.43" length="5.00" nVehEntered="34"/>
    <interval begin="180.00" end="240.00" id="mainline_eval_4_0" nVehContrib="0" flow="0.00" occupancy="0.00" speed="-1.00" length="-1.00" nVehEntered="0"/>
    <interval begin="180.00" end="240.00" id="mainline_eval_4_1" nVehContrib="26" flow="1560.00" occupancy="13.53" speed="16.41" length="5.00" nVehEntered="26"/>
    <interval begin="180.00" end="240.00" id="mainline_eval_4_2" nVehContrib="24" flow="1440.00" occupancy="10.37" speed="19.91" length="5.00" nVehEntered="25"/>
    <interval begin="180.00" end="240.00" id="mainline_eval_4_3" nVehContrib="33" flow="1980.00" occupancy="12.67" speed="21.73" length="5.00" nVehEntered="33"/>
    <interval begin="180.00" end="240.00" id="mainline_eval_5_0" nVehContrib="27" flow="1620.00" occupancy="14.29" speed="17.32" length="5.00" nVehEntered="27"/>
    <interval begin="180.00" end="240.00" id="mainline_eval_5_1" nVehContrib="26" flow="1560.00" occupancy="10.79" speed="20.13" length="5.00" nVehEntered="27"/>
    <interval begin="180.00" end="240.00" id="mainline_eval_5_2" nVehContrib="34" flow="2040.00" occupancy="13.02" speed="21.80" length="5.00" nVehEntered="34"/>
    <interval begin="180.00" end="240.00" id="mainline_eval_6_0" nVehContrib="27" flow="1620.00" occupancy="14.23" speed="17.25" length="5.00" nVehEntered="27"/>
    <interval begin="180.00" end="240.00" id="mainline_eval_6_1" nVehContrib="24" flow="1440.00" occupancy="10.21" speed="19.76" length="5.00" nVehEntered="25"/>
    <interval begin="180.00" end="240.00" id="mainline_eval_6_2" nVehContrib="33" flow="1980.00" occupancy="12.72" speed="21.65" length="5.00" nVehEntered="33"/>
    <interval begin="240.00" end="300.00" id="mainline_eval_0_0" nVehContrib="18" flow="1080.00" occupancy="8.17" speed="18.42" length="5.00" nVehEntered="18"/>
    <interval begin="240.00" end="300.00" id="mainline_eval_0_1" nVehContrib="23" flow="1380.00" occupancy="9.96" speed="19.35" length="5.00" nVehEntered="23"/>
    <interval begin="240.00" end="300.00" id="mainline_eval_0_2" nVehContrib="36" flow="2160.00" occupancy="14.27" speed="21.06" length="5.00" nVehEntered="36"/>
    <interval begin="240.00" end="300.00" id="mainline_eval_1_0" nVehContrib="17" flow="1020.00" occupancy="7.42" speed="19.17" length="5.00" nVehEntered="17"/>
    <interval begin="240.00" end="300.00" id="mainline_eval_1_1" nVehContrib="22" flow="1320.00" occupancy="9.38" speed="19.70" length="5.00" nVehEntered="22"/>
    <interval begin="240.00" end="300.00" id="mainline_eval_1_2" nVehContrib="32" flow="1920.00" occupancy="12.52" speed="21.31" length="5.00" nVehEntered="32"/>
    <interval begin="240.00" end="300.00" id="mainline_eval_2_0" nVehContrib="22" flow="1320.00" occupancy="10.23" speed="18.10" length="5.00" nVehEntered="22"/>
    <interval begin="240.00" end="300.00" id="mainline_eval_2_1" nVehContrib="22" flow="1320.00" occupancy="9.19" speed="20.00" length="5.00" nVehEntered="22"/>
    <interval begin="240.00" end="300.00" id="mainline_eval_2_2" nVehContrib="33" flow="1980.00" occupancy="12.90" speed="21.35" length="5.00" nVehEntered="33"/>
    <interval begin="240.00" end="300.00" id="mainline_eval_3_0" nVehContrib="10" flow="600.00" occupancy="7.39" speed="11.71" length="5.00" nVehEntered="10"/>
    <interval begin="240.00" end="300.00" id="mainline_eval_3_1" nVehContrib="27" flow="1620.00" occupancy="19.20" speed="13.50" length="5.00" nVehEntered="27"/>
    <interval begin="240.00" end="300.00" id="mainline_eval_3_2" nVehContrib="33" flow="1980.00" occupancy="14.87" speed="18.83" length="5.00" nVehEntered="33"/>
    <interval begin="240.00" end="300.00" id="mainline_eval_3_3" nVehContrib="38" flow="2280.00" occupancy="15.51" speed="20.52" length="5.00" nVehEntered="38"/>
    <interval begin="240.00" end="300.00" id="mainline_eval_4_0" nVehContrib="4" flow="240.00" occupancy="7.38" speed="7.66" length="5.00" nVehEntered="4"/>
    <interval begin="240.00" end="300.00" id="mainline_eval_4_1" nVehContrib="27" flow="1620.00" occupancy="23.95" speed="12.99" length="5.00" nVehEntered="28"/>
    <interval begin="240.00" end="300.00" id="mainline_eval_4_2" nVehContrib="36" flow="2160.00" occupancy="16.81" speed="18.54" length="5.00" nVehEntered="35"/>
    <interval begin="240.00" end="300.00" id="mainline_eval_4_3" nVehContrib="39" flow="2340.00" occupancy="16.01" speed="20.71" length="5.00" nVehEntered="40"/>
    <interval begin="240.00" end="300.00" id="mainline_eval_5_0" nVehContrib="27" flow="1620.00" occupancy="12.49" speed="18.06" length="5.00" nVehEntered="27"/>
    <interval begin="240.00" end="300.00" id="mainline_eval_5_1" nVehContrib="34" flow="2040.00" occupancy="14.90" speed="19.25" length="5.00" nVehEntered="35"/>
    <interval begin="240.00" end="300.00" id="mainline_eval_5_2" nVehContrib="37" flow="2220.00" occupancy="14.66" speed="21.05" length="5.00" nVehEntered="37"/>
    <interval begin="240.00" end="300.00" id="mainline_eval_6_0" nVehContrib="27" flow="1620.00" occupancy="12.70" speed="17.82" length="5.00" nVehEntered="27"/>
    <interval begin="240.00" end="300.00" id="mainline_eval_6_1" nVehContrib="33" flow="1980.00" occupancy="14.19" speed="19.68" length="5.00" nVehEntered="34"/>
    <interval begin="240.00" end="300.00" id="mainline_eval_6_2" nVehContrib="37" flow="2220.00" occupancy="14.48" speed="21.32" length="5.00" nVehEntered="37"/>
    <interval begin="300.00" end="360.00" id="mainline_eval_0_0" nVehContrib="14" flow="840.00" occupancy="6.69" speed="17.49" length="5.00" nVehEntered="14"/>
    <interval begin="300.00" end="360.00" id="mainline_eval_0_1" nVehContrib="27" flow="1620.00" occupancy="11.82" speed="19.12" length="5.00" nVehEntered="27"/>
    <interval begin="300.00" end="360.00" id="mainline_eval_0_2" nVehContrib="32" flow="1920.00" occupancy="12.45" speed="21.44" length="5.00" nVehEntered="32"/>
    <interval begin="300.00" end="360.00" id="mainline_eval_1_0" nVehContrib="18" flow="1080.00" occupancy="8.03" speed="18.72" length="5.00" nVehEntered="18"/>
    <interval begin="300.00" end="360.00" id="mainline_eval_1_1" nVehContrib="27" flow="1620.00" occupancy="11.47" speed="19.68" length="5.00" nVehEntered="27"/>
    <interval begin="300.00" end="360.00" id="mainline_eval_1_2" nVehContrib="34" flow="2040.00" occupancy="13.30" speed="21.33" length="5.00" nVehEntered="34"/>
    <interval begin="300.00" end="360.00" id="mainline_eval_2_0" nVehContrib="17" flow="1020.00" occupancy="7.60" speed="18.67" length="5.00" nVehEntered="17"/>
    <interval begin="300.00" end="360.00" id="mainline_eval_2_1" nVehContrib="26" flow="1560.00" occupancy="11.51" speed="18.90" length="5.00" nVehEntered="26"/>
    <interval begin="300.00" end="360.00" id="mainline_eval_2_2" nVehContrib="37" flow="2220.00" occupancy="15.52" speed="20.04" length="5.00" nVehEntered="38"/>
    <interval begin="300.00" end="360.00" id="mainline_eval_3_0" nVehContrib="7" flow="420.00" occupancy="6.06" speed="11.39" length="5.00" nVehEntered="8"/>
    <interval begin="300.00" end="360.00" id="mainline_eval_3_1" nVehContrib="25" flow="1500.00" occupancy="19.23" speed="13.22" length="5.00" nVehEntered="25"/>
    <interval begin="300.00" end="360.00" id="mainline_eval_3_2" nVehContrib="26" flow="1560.00" occupancy="13.09" speed="16.99" length="5.00" nVehEntered="27"/>
    <interval begin="300.00" end="360.00" id="mainline_eval_3_3" nVehContrib="36" flow="2160.00" occupancy="16.25" speed="19.76" length="5.00" nVehEntered="36"/>
    <interval begin="300.00" end="360.00" id="mainline_eval_4_0" nVehContrib="1" flow="60.00" occupancy="0.86" speed="9.72" length="5.00" nVehEntered="1"/>
    <interval begin="300.00" end="360.00" id="mainline_eval_4_1" nVehContrib="29" flow="1740.00" occupancy="18.35" speed="13.39" length="5.00" nVehEntered="30"/>
    <interval begin="300.00" end="360.00" id="mainline_eval_4_2" nVehContrib="31" flow="1860.00" occupancy="19.04" speed="16.30" length="5.00" nVehEntered="31"/>
    <interval begin="300.00" end="360.00" id="mainline_eval_4_3" nVehContrib="37" flow="2220.00" occupancy="15.31" speed="20.07" length="5.00" nVehEntered="37"/>
    <interval begin="300.00" end="360.00" id="mainline_eval_5_0" nVehContrib="26" flow="1560.00" occupancy="11.74" speed="18.53" length="5.00" nVehEntered="26"/>
    <interval begin="300.00" end="360.00" id="mainline_eval_5_1" nVehContrib="34" flow="2040.00" occupancy="14.70" speed="19.22" length="5.00" nVehEntered="33"/>
    <interval begin="300.00" end="360.00" id="mainline_eval_5_2" nVehContrib="37" flow="2220.00" occupancy="14.99" speed="20.63" length="5.00" nVehEntered="37"/>
    <interval begin="300.00" end="360.00" id="mainline_eval_6_0" nVehContrib="25" flow="1500.00" occupancy="11.97" speed="17.52" length="5.00" nVehEntered="25"/>
    <interval begin="300.00" end="360.00" id="mainline_eval_6_1" nVehContrib="34" flow="2040.00" occupancy="14.84" speed="19.04" length="5.00" nVehEntered="33"/>
    <interval begin="300.00" end="360.00" id="mainline_eval_6_2" nVehContrib="37" flow="2220.00" occupancy="15.17" speed="20.35" length="5.00" nVehEntered="37"/>
    <interval begin="360.00" end="420.00" id="mainline_eval_0_0" nVehContrib="24" flow="1440.00" occupancy="10.63" speed="18.88" length="5.00" nVehEntered="24"/>
    <interval begin="360.00" end="420.00" id="mainline_eval_0_1" nVehContrib="28" flow="1680.00" occupancy="11.62" speed="20.18" length="5.00" nVehEntered="28"/>
    <interval begin="360.00" end="420.00" id="mainline_eval_0_2" nVehContrib="29" flow="1740.00" occupancy="11.27" speed="21.46" length="5.00" nVehEntered="29"/>
    <interval begin="360.00" end="420.00" id="mainline_eval_1_0" nVehContrib="20" flow="1200.00" occupancy="9.17" speed="18.29" length="5.00" nVehEntered="20"/>
    <interval begin="360.00" end="420.00" id="mainline_eval_1_1" nVehContrib="31" flow="1860.00" occupancy="13.13" speed="19.78" length="5.00" nVehEntered="31"/>
    <interval begin="360.00" end="420.00" id="mainline_eval_1_2" nVehContrib="37" flow="2220.00" occupancy="14.59" speed="21.18" length="5.00" nVehEntered="37"/>
    <interval begin="360.00" end="420.00" id="mainline_eval_2_0" nVehContrib="23" flow="1380.00" occupancy="10.82" speed="17.83" length="5.00" nVehEntered="23"/>
    <interval begin="360.00" end="420.00" id="mainline_eval_2_1" nVehContrib="24" flow="1440.00" occupancy="9.61" speed="20.85" length="5.00" nVehEntered="24"/>
    <interval begin="360.00" end="420.00" id="mainline_eval_2_2" nVehContrib="34" flow="2040.00" occupancy="13.06" speed="21.69" length="5.00" nVehEntered="34"/>
    <interval begin="360.00" end="420.00" id="mainline_eval_3_0" nVehContrib="2" flow="120.00" occupancy="1.32" speed="12.61" length="5.00" nVehEntered="3"/>
    <interval begin="360.00" end="420.00" id="mainline_eval_3_1" nVehContrib="26" flow="1560.00" occupancy="16.44" speed="14.31" length="5.00" nVehEntered="26"/>
    <interval begin="360.00" end="420.00" id="mainline_eval_3_2" nVehContrib="30" flow="1800.00" occupancy="12.99" speed="19.31" length="5.00" nVehEntered="30"/>
    <interval begin="360.00" end="420.00" id="mainline_eval_3_3" nVehContrib="34" flow="2040.00" occupancy="13.67" speed="20.77" length="5.00" nVehEntered="34"/>
    <interval begin="360.00" end="420.00" id="mainline_eval_4_0" nVehContrib="0" flow="0.00" occupancy="0.00" speed="-1.00" length="-1.00" nVehEntered="1"/>
    <interval begin="360.00" end="420.00" id="mainline_eval_4_1" nVehContrib="25" flow="1500.00" occupancy="14.68" speed="15.67" length="5.00" nVehEntered="25"/>
    <interval begin="360.00" end="420.00" id="mainline_eval_4_2" nVehContrib="29" flow="1740.00" occupancy="12.58" speed="19.28" length="5.00" nVehEntered="29"/>
    <interval begin="360.00" end="420.00" id="mainline_eval_4_3" nVehContrib="36" flow="2160.00" occupancy="14.44" speed="20.73" length="5.00" nVehEntered="35"/>
    <interval begin="360.00" end="420.00" id="mainline_eval_5_0" nVehContrib="24" flow="1440.00" occupancy="11.55" speed="17.53" length="5.00" nVehEntered="24"/>
    <interval begin="360.00" end="420.00" id="mainline_eval_5_1" nVehContrib="31" flow="1860.00" occupancy="13.73" speed="18.94" length="5.00" nVehEntered="31"/>
    <interval begin="360.00" end="420.00" id="mainline_eval_5_2" nVehContrib="35" flow="2100.00" occupancy="14.45" speed="20.26" length="5.00" nVehEntered="35"/>
    <interval begin="360.00" end="420.00" id="mainline_eval_6_0" nVehContrib="25" flow="1500.00" occupancy="11.91" speed="17.64" length="5.00" nVehEntered="25"/>
    <interval begin="360.00" end="420.00" id="mainline_eval_6_1" nVehContrib="33" flow="1980.00" occupancy="14.77" speed="18.69" length="5.00" nVehEntered="33"/>
    <interval begin="360.00" end="420.00" id="mainline_eval_6_2" nVehContrib="36" flow="2160.00" occupancy="14.92" speed="20.68" length="5.00" nVehEntered="37"/>
    <interval begin="420.00" end="480.00" id="mainline_eval_0_0" nVehContrib="19" flow="1140.00" occupancy="8.86" speed="17.96" length="5.00" nVehEntered="19"/>
    <interval begin="420.00" end="480.00" id="mainline_eval_0_1" nVehContrib="26" flow="1560.00" occupancy="11.26" speed="19.28" length="5.00" nVehEntered="26"/>
    <interval begin="420.00" end="480.00" id="mainline_eval_0_2" nVehContrib="36" flow="2160.00" occupancy="14.80" speed="20.37" length="5.00" nVehEntered="36"/>
    <interval begin="420.00" end="480.00" id="mainline_eval_1_0" nVehContrib="16" flow="960.00" occupancy="7.41" speed="18.18" length="5.00" nVehEntered="16"/>
    <interval begin="420.00" end="480.00" id="mainline_eval_1_1" nVehContrib="22" flow="1320.00" occupancy="9.28" speed="19.81" length="5.00" nVehEntered="22"/>
    <interval begin="420.00" end="480.00" id="mainline_eval_1_2" nVehContrib="28" flow="1680.00" occupancy="11.31" speed="20.73" length="5.00" nVehEntered="28"/>
    <interval begin="420.00" end="480.00" id="mainline_eval_2_0" nVehContrib="18" flow="1080.00" occupancy="7.91" speed="19.04" length="5.00" nVehEntered="18"/>
    <interval begin="420.00" end="480.00" id="mainline_eval_2_1" nVehContrib="18" flow="1080.00" occupancy="7.19" speed="20.93" length="5.00" nVehEntered="18"/>
    <interval begin="420.00" end="480.00" id="mainline_eval_2_2" nVehContrib="28" flow="1680.00" occupancy="10.72" speed="21.71" length="5.00" nVehEntered="27"/>
    <interval begin="420.00" end="480.00" id="mainline_eval_3_0" nVehContrib="10" flow="600.00" occupancy="9.03" speed="9.56" length="5.00" nVehEntered="10"/>
    <interval begin="420.00" end="480.00" id="mainline_eval_3_1" nVehContrib="16" flow="960.00" occupancy="23.50" speed="7.55" length="5.00" nVehEntered="17"/>
    <interval begin="420.00" end="480.00" id="mainline_eval_3_2" nVehContrib="25" flow="1500.00" occupancy="23.36" speed="11.95" length="5.00" nVehEntered="25"/>
    <interval begin="420.00" end="480.00" id="mainline_eval_3_3" nVehContrib="36" flow="2160.00" occupancy="16.46" speed="19.39" length="5.00" nVehEntered="36"/>
    <interval begin="420.00" end="480.00" id="mainline_eval_4_0" nVehContrib="0" flow="0.00" occupancy="0.00" speed="-1.00" length="-1.00" nVehEntered="0"/>
    <interval begin="420.00" end="480.00" id="mainline_eval_4_1" nVehContrib="26" flow="1560.00" occupancy="19.92" speed="11.37" length="5.00" nVehEntered="26"/>
    <interval begin="420.00" end="480.00" id="mainline_eval_4_2" nVehContrib="31" flow="1860.00" occupancy="18.10" speed="14.99" length="5.00" nVehEntered="31"/>
    <interval begin="420.00" end="480.00" id="mainline_eval_4_3" nVehContrib="36" flow="2160.00" occupancy="15.52" speed="20.09" length="5.00" nVehEntered="37"/>
    <interval begin="420.00" end="480.00" id="mainline_eval_5_0" nVehContrib="32" flow="1920.00" occupancy="14.97" speed="17.93" length="5.00" nVehEntered="32"/>
    <interval begin="420.00" end="480.00" id="mainline_eval_5_1" nVehContrib="30" flow="1800.00" occupancy="13.84" speed="18.24" length="5.00" nVehEntered="30"/>
    <interval begin="420.00" end="480.00" id="mainline_eval_5_2" nVehContrib="39" flow="2340.00" occupancy="15.27" speed="21.31" length="5.00" nVehEntered="39"/>