<?xml version="1.0" encoding="UTF-8"?>

<!-- generated on 02/13/19 00:13:16 by Eclipse SUMO Version 1.0.1
<configuration xmlns:xsi="http://www.w3.org/2001/XMLSchema-instance" xsi:noNamespaceSchemaLocation="http://sumo.dlr.de/xsd/sumoConfiguration.xsd">

    <input>
        <net-file value="./project/ramp.net.xml"/>
        <route-files value="./project/ramp.rou.xml"/>
        <additional-files value="./project/ramp.add.xml"/>
    </input>

    <time>
        <begin value="0"/>
    </time>

    <report>
        <verbose value="true"/>
        <no-step-log value="true"/>
    </report>

    <traci_server>
        <remote-port value="52927"/>
    </traci_server>

    <random_number>
        <seed value="1777382835"/>
    </random_number>

    <gui_only>
        <quit-on-end value="true"/>
        <start value="true"/>
    </gui_only>

</configuration>
-->

<detector xmlns:xsi="http://www.w3.org/2001/XMLSchema-instance" xsi:noNamespaceSchemaLocation="http://sumo.dlr.de/xsd/det_e1_file.xsd">
    <interval begin="0.00" end="60.00" id="mainline_eval_0_0" nVehContrib="1" flow="60.00" occupancy="0.34" speed="24.74" length="5.00" nVehEntered="1"/>
    <interval begin="0.00" end="60.00" id="mainline_eval_0_1" nVehContrib="0" flow="0.00" occupancy="0.00" speed="-1.00" length="-1.00" nVehEntered="0"/>
    <interval begin="0.00" end="60.00" id="mainline_eval_0_2" nVehContrib="0" flow="0.00" occupancy="0.00" speed="-1.00" length="-1.00" nVehEntered="0"/>
    <interval begin="0.00" end="60.00" id="mainline_eval_1_0" nVehContrib="0" flow="0.00" occupancy="0.00" speed="-1.00" length="-1.00" nVehEntered="0"/>
    <interval begin="0.00" end="60.00" id="mainline_eval_1_1" nVehContrib="0" flow="0.00" occupancy="0.00" speed="-1.00" length="-1.00" nVehEntered="0"/>
    <interval begin="0.00" end="60.00" id="mainline_eval_1_2" nVehContrib="0" flow="0.00" occupancy="0.00" speed="-1.00" length="-1.00" nVehEntered="0"/>
    <interval begin="0.00" end="60.00" id="mainline_eval_2_0" nVehContrib="0" flow="0.00" occupancy="0.00" speed="-1.00" length="-1.00" nVehEntered="0"/>
    <interval begin="0.00" end="60.00" id="mainline_eval_2_1" nVehContrib="0" flow="0.00" occupancy="0.00" speed="-1.00" length="-1.00" nVehEntered="0"/>
    <interval begin="0.00" end="60.00" id="mainline_eval_2_2" nVehContrib="0" flow="0.00" occupancy="0.00" speed="-1.00" length="-1.00" nVehEntered="0"/>
    <interval begin="0.00" end="60.00" id="mainline_eval_3_0" nVehContrib="0" flow="0.00" occupancy="0.00" speed="-1.00" length="-1.00" nVehEntered="0"/>
    <interval begin="0.00" end="60.00" id="mainline_eval_3_1" nVehContrib="0" flow="0.00" occupancy="0.00" speed="-1.00" length="-1.00" nVehEntered="0"/>
    <interval begin="0.00" end="60.00" id="mainline_eval_3_2" nVehContrib="0" flow="0.00" occupancy="0.00" speed="-1.00" length="-1.00" nVehEntered="0"/>
    <interval begin="0.00" end="60.00" id="mainline_eval_3_3" nVehContrib="0" flow="0.00" occupancy="0.00" speed="-1.00" length="-1.00" nVehEntered="0"/>
    <interval begin="0.00" end="60.00" id="mainline_eval_4_0" nVehContrib="0" flow="0.00" occupancy="0.00" speed="-1.00" length="-1.00" nVehEntered="0"/>
    <interval begin="0.00" end="60.00" id="mainline_eval_4_1" nVehContrib="0" flow="0.00" occupancy="0.00" speed="-1.00" length="-1.00" nVehEntered="0"/>
    <interval begin="0.00" end="60.00" id="mainline_eval_4_2" nVehContrib="0" flow="0.00" occupancy="0.00" speed="-1.00" length="-1.00" nVehEntered="0"/>
    <interval begin="0.00" end="60.00" id="mainline_eval_4_3" nVehContrib="0" flow="0.00" occupancy="0.00" speed="-1.00" length="-1.00" nVehEntered="0"/>
    <interval begin="0.00" end="60.00" id="mainline_eval_5_0" nVehContrib="0" flow="0.00" occupancy="0.00" speed="-1.00" length="-1.00" nVehEntered="0"/>
    <interval begin="0.00" end="60.00" id="mainline_eval_5_1" nVehContrib="0" flow="0.00" occupancy="0.00" speed="-1.00" length="-1.00" nVehEntered="0"/>
    <interval begin="0.00" end="60.00" id="mainline_eval_5_2" nVehContrib="0" flow="0.00" occupancy="0.00" speed="-1.00" length="-1.00" nVehEntered="0"/>
    <interval begin="0.00" end="60.00" id="mainline_eval_6_0" nVehContrib="0" flow="0.00" occupancy="0.00" speed="-1.00" length="-1.00" nVehEntered="0"/>
    <interval begin="0.00" end="60.00" id="mainline_eval_6_1" nVehContrib="0" flow="0.00" occupancy="0.00" speed="-1.00" length="-1.00" nVehEntered="0"/>
    <interval begin="0.00" end="60.00" id="mainline_eval_6_2" nVehContrib="0" flow="0.00" occupancy="0.00" speed="-1.00" length="-1.00" nVehEntered="0"/>
    <interval begin="60.00" end="120.00" id="mainline_eval_0_0" nVehContrib="10" flow="600.00" occupancy="4.33" speed="19.37" length="5.00" nVehEntered="10"/>
    <interval begin="60.00" end="120.00" id="mainline_eval_0_1" nVehContrib="20" flow="1200.00" occupancy="8.28" speed="20.15" length="5.00" nVehEntered="20"/>
    <interval begin="60.00" end="120.00" id="mainline_eval_0_2" nVehContrib="25" flow="1500.00" occupancy="9.86" speed="21.15" length="5.00" nVehEntered="25"/>
    <interval begin="60.00" end="120.00" id="mainline_eval_1_0" nVehContrib="5" flow="300.00" occupancy="2.04" speed="20.69" length="5.00" nVehEntered="5"/>
    <interval begin="60.00" end="120.00" id="mainline_eval_1_1" nVehContrib="10" flow="600.00" occupancy="4.06" speed="20.58" length="5.00" nVehEntered="10"/>
    <interval begin="60.00" end="120.00" id="mainline_eval_1_2" nVehContrib="11" flow="660.00" occupancy="4.13" speed="22.24" length="5.00" nVehEntered="11"/>
    <interval begin="60.00" end="120.00" id="mainline_eval_2_0" nVehContrib="3" flow="180.00" occupancy="1.12" speed="22.50" length="5.00" nVehEntered="3"/>
    <interval begin="60.00" end="120.00" id="mainline_eval_2_1" nVehContrib="1" flow="60.00" occupancy="0.36" speed="23.04" length="5.00" nVehEntered="1"/>
    <interval begin="60.00" end="120.00" id="mainline_eval_2_2" nVehContrib="1" flow="60.00" occupancy="0.35" speed="24.14" length="5.00" nVehEntered="1"/>
    <interval begin="60.00" end="120.00" id="mainline_eval_3_0" nVehContrib="0" flow="0.00" occupancy="0.00" speed="-1.00" length="-1.00" nVehEntered="0"/>
    <interval begin="60.00" end="120.00" id="mainline_eval_3_1" nVehContrib="2" flow="120.00" occupancy="0.70" speed="23.78" length="5.00" nVehEntered="2"/>
    <interval begin="60.00" end="120.00" id="mainline_eval_3_2" nVehContrib="0" flow="0.00" occupancy="0.00" speed="-1.00" length="-1.00" nVehEntered="0"/>
    <interval begin="60.00" end="120.00" id="mainline_eval_3_3" nVehContrib="0" flow="0.00" occupancy="0.00" speed="-1.00" length="-1.00" nVehEntered="0"/>
    <interval begin="60.00" end="120.00" id="mainline_eval_4_0" nVehContrib="0" flow="0.00" occupancy="0.00" speed="-1.00" length="-1.00" nVehEntered="0"/>
    <interval begin="60.00" end="120.00" id="mainline_eval_4_1" nVehContrib="2" flow="120.00" occupancy="0.70" speed="23.85" length="5.00" nVehEntered="2"/>
    <interval begin="60.00" end="120.00" id="mainline_eval_4_2" nVehContrib="0" flow="0.00" occupancy="0.00" speed="-1.00" length="-1.00" nVehEntered="0"/>
    <interval begin="60.00" end="120.00" id="mainline_eval_4_3" nVehContrib="0" flow="0.00" occupancy="0.00" speed="-1.00" length="-1.00" nVehEntered="0"/>
    <interval begin="60.00" end="120.00" id="mainline_eval_5_0" nVehContrib="1" flow="60.00" occupancy="0.33" speed="25.23" length="5.00" nVehEntered="1"/>
    <interval begin="60.00" end="120.00" id="mainline_eval_5_1" nVehContrib="0" flow="0.00" occupancy="0.00" speed="-1.00" length="-1.00" nVehEntered="0"/>
    <interval begin="60.00" end="120.00" id="mainline_eval_5_2" nVehContrib="0" flow="0.00" occupancy="0.00" speed="-1.00" length="-1.00" nVehEntered="0"/>
    <interval begin="60.00" end="120.00" id="mainline_eval_6_0" nVehContrib="1" flow="60.00" occupancy="0.33" speed="25.10" length="5.00" nVehEntered="1"/>
    <interval begin="60.00" end="120.00" id="mainline_eval_6_1" nVehContrib="0" flow="0.00" occupancy="0.00" speed="-1.00" length="-1.00" nVehEntered="0"/>
    <interval begin="60.00" end="120.00" id="mainline_eval_6_2" nVehContrib="0" flow="0.00" occupancy="0.00" speed="-1.00" length="-1.00" nVehEntered="0"/>
    <interval begin="120.00" end="180.00" id="mainline_eval_0_0" nVehContrib="17" flow="1020.00" occupancy="7.39" speed="19.26" length="5.00" nVehEntered="17"/>
    <interval begin="120.00" end="180.00" id="mainline_eval_0_1" nVehContrib="26" flow="1560.00" occupancy="11.48" speed="19.35" length="5.00" nVehEntered="26"/>
    <interval begin="120.00" end="180.00" id="mainline_eval_0_2" nVehContrib="28" flow="1680.00" occupancy="10.82" speed="21.59" length="5.00" nVehEntered="28"/>
    <interval begin="120.00" end="180.00" id="mainline_eval_1_0" nVehContrib="17" flow="1020.00" occupancy="7.66" speed="18.58" length="5.00" nVehEntered="17"/>
    <interval begin="120.00" end="180.00" id="mainline_eval_1_1" nVehContrib="29" flow="1740.00" occupancy="11.59" speed="20.88" length="5.00" nVehEntered="29"/>
    <interval begin="120.00" end="180.00" id="mainline_eval_1_2" nVehContrib="30" flow="1800.00" occupancy="11.72" speed="21.37" length="5.00" nVehEntered="30"/>
    <interval begin="120.00" end="180.00" id="mainline_eval_2_0" nVehContrib="15" flow="900.00" occupancy="8.54" speed="17.29" length="5.00" nVehEntered="16"/>
    <interval begin="120.00" end="180.00" id="mainline_eval_2_1" nVehContrib="27" flow="1620.00" occupancy="12.51" speed="20.10" length="5.00" nVehEntered="28"/>
    <interval begin="120.00" end="180.00" id="mainline_eval_2_2" nVehContrib="31" flow="1860.00" occupancy="11.92" speed="21.71" length="5.00" nVehEntered="31"/>
    <interval begin="120.00" end="180.00" id="mainline_eval_3_0" nVehContrib="2" flow="120.00" occupancy="1.32" speed="12.65" length="5.00" nVehEntered="2"/>
    <interval begin="120.00" end="180.00" id="mainline_eval_3_1" nVehContrib="18" flow="1080.00" occupancy="9.70" speed="15.99" length="5.00" nVehEntered="18"/>
    <interval begin="120.00" end="180.00" id="mainline_eval_3_2" nVehContrib="28" flow="1680.00" occupancy="11.22" speed="20.92" length="5.00" nVehEntered="28"/>
    <interval begin="120.00" end="180.00" id="mainline_eval_3_3" nVehContrib="23" flow="1380.00" occupancy="8.53" speed="22.48" length="5.00" nVehEntered="23"/>
    <interval begin="120.00" end="180.00" id="mainline_eval_4_0" nVehContrib="1" flow="60.00" occupancy="0.72" speed="11.52" length="5.00" nVehEntered="1"/>
    <interval begin="120.00" end="180.00" id="mainline_eval_4_1" nVehContrib="16" flow="960.00" occupancy="7.95" speed="17.05" length="5.00" nVehEntered="16"/>
    <interval begin="120.00" end="180.00" id="mainline_eval_4_2" nVehContrib="27" flow="1620.00" occupancy="10.82" speed="20.91" length="5.00" nVehEntered="28"/>
    <interval begin="120.00" end="180.00" id="mainline_eval_4_3" nVehContrib="24" flow="1440.00" occupancy="10.49" speed="21.66" length="5.00" nVehEntered="24"/>
    <interval begin="120.00" end="180.00" id="mainline_eval_5_0" nVehContrib="13" flow="780.00" occupancy="6.25" speed="18.27" length="5.00" nVehEntered="14"/>
    <interval begin="120.00" end="180.00" id="mainline_eval_5_1" nVehContrib="22" flow="1320.00" occupancy="9.17" speed="20.23" length="5.00" nVehEntered="22"/>
    <interval begin="120.00" end="180.00" id="mainline_eval_5_2" nVehContrib="20" flow="1200.00" occupancy="7.44" speed="22.43" length="5.00" nVehEntered="20"/>
    <interval begin="120.00" end="180.00" id="mainline_eval_6_0" nVehContrib="10" flow="600.00" occupancy="4.35" speed="19.28" length="5.00" nVehEntered="10"/>
    <interval begin="120.00" end="180.00" id="mainline_eval_6_1" nVehContrib="19" flow="1140.00" occupancy="7.41" speed="21.41" length="5.00" nVehEntered="19"/>
    <interval begin="120.00" end="180.00" id="mainline_eval_6_2" nVehContrib="17" flow="1020.00" occupancy="6.33" speed="22.40" length="5.00" nVehEntered="17"/>
    <interval begin="180.00" end="240.00" id="mainline_eval_0_0" nVehContrib="20" flow="1200.00" occupancy="8.69" speed="19.26" length="5.00" nVehEntered="20"/>
    <interval begin="180.00" end="240.00" id="mainline_eval_0_1" nVehContrib="26" flow="1560.00" occupancy="12.36" speed="19.29" length="5.00" nVehEntered="26"/>
    <interval begin="180.00" end="240.00" id="mainline_eval_0_2" nVehContrib="28" flow="1680.00" occupancy="10.66" speed="21.93" length="5.00" nVehEntered="29"/>
    <interval begin="180.00" end="240.00" id="mainline_eval_1_0" nVehContrib="20" flow="1200.00" occupancy="8.56" speed="19.52" length="5.00" nVehEntered="20"/>
    <interval begin="180.00" end="240.00" id="mainline_eval_1_1" nVehContrib="26" flow="1560.00" occupancy="10.82" speed="20.11" length="5.00" nVehEntered="26"/>
    <interval begin="180.00" end="240.00" id="mainline_eval_1_2" nVehContrib="33" flow="1980.00" occupancy="12.78" speed="21.55" length="5.00" nVehEntered="33"/>
    <interval begin="180.00" end="240.00" id="mainline_eval_2_0" nVehContrib="18" flow="1080.00" occupancy="8.01" speed="18.89" length="5.00" nVehEntered="18"/>
    <interval begin="180.00" end="240.00" id="mainline_eval_2_1" nVehContrib="25" flow="1500.00" occupancy="10.92" speed="19.20" length="5.00" nVehEntered="25"/>
    <interval begin="180.00" end="240.00" id="mainline_eval_2_2" nVehContrib="35" flow="2100.00" occupancy="14.42" speed="20.40" length="5.00" nVehEntered="35"/>
    <interval begin="180.00" end="240.00" id="mainline_eval_3_0" nVehContrib="4" flow="240.00" occupancy="2.71" speed="12.34" length="5.00" nVehEntered="5"/>
    <interval begin="180.00" end="240.00" id="mainline_eval_3_1" nVehContrib="21" flow="1260.00" occupancy="13.17" speed="14.97" length="5.00" nVehEntered="21"/>
    <interval begin="180.00" end="240.00" id="mainline_eval_3_2" nVehContrib="29" flow="1740.00" occupancy="14.17" speed="17.63" length="5.00" nVehEntered="29"/>
    <interval begin="180.00" end="240.00" id="mainline_eval_3_3" nVehContrib="34" flow="2040.00" occupancy="13.52" speed="21.03" length="5.00" nVehEntered="34"/>
    <interval begin="180.00" end="240.00" id="mainline_eval_4_0" nVehContrib="1" flow="60.00" occupancy="0.74" speed="11.25" length="5.00" nVehEntered="1"/>
    <interval begin="180.00" end="240.00" id="mainline_eval_4_1" nVehContrib="24" flow="1440.00" occupancy="12.36" speed="16.59" length="5.00" nVehEntered="24"/>
    <interval begin="180.00" end="240.00" id="mainline_eval_4_2" nVehContrib="31" flow="1860.00" occupancy="13.64" speed="19.07" length="5.00" nVehEntered="31"/>
    <interval begin="180.00" end="240.00" id="mainline_eval_4_3" nVehContrib="33" flow="1980.00" occupancy="13.19" speed="20.91" length="5.00" nVehEntered="33"/>
    <interval begin="180.00" end="240.00" id="mainline_eval_5_0" nVehContrib="28" flow="1680.00" occupancy="12.53" speed="18.26" length="5.00" nVehEntered="27"/>
    <interval begin="180.00" end="240.00" id="mainline_eval_5_1" nVehContrib="33" flow="1980.00" occupancy="14.68" speed="18.78" length="5.00" nVehEntered="33"/>
    <interval begin="180.00" end="240.00" id="mainline_eval_5_2" nVehContrib="33" flow="1980.00" occupancy="13.11" speed="20.99" length="5.00" nVehEntered="33"/>
    <interval begin="180.00" end="240.00" id="mainline_eval_6_0" nVehContrib="28" flow="1680.00" occupancy="13.38" speed="17.55" length="5.00" nVehEntered="28"/>
    <interval begin="180.00" end="240.00" id="mainline_eval_6_1" nVehContrib="32" flow="1920.00" occupancy="14.51" speed="18.54" length="5.00" nVehEntered="32"/>
    <interval begin="180.00" end="240.00" id="mainline_eval_6_2" nVehContrib="34" flow="2040.00" occupancy="13.56" speed="20.94" length="5.00" nVehEntered="34"/>
    <interval begin="240.00" end="300.00" id="mainline_eval_0_0" nVehContrib="17" flow="1020.00" occupancy="7.80" speed="18.23" length="5.00" nVehEntered="17"/>
    <interval begin="240.00" end="300.00" id="mainline_eval_0_1" nVehContrib="26" flow="1560.00" occupancy="12.98" speed="18.23" length="5.00" nVehEntered="26"/>
    <interval begin="240.00" end="300.00" id="mainline_eval_0_2" nVehContrib="35" flow="2100.00" occupancy="14.52" speed="20.12" length="5.00" nVehEntered="36"/>
    <interval begin="240.00" end="300.00" id="mainline_eval_1_0" nVehContrib="18" flow="1080.00" occupancy="8.20" speed="18.44" length="5.00" nVehEntered="18"/>
    <interval begin="240.00" end="300.00" id="mainline_eval_1_1" nVehContrib="21" flow="1260.00" occupancy="9.14" speed="19.97" length="5.00" nVehEntered="22"/>
    <interval begin="240.00" end="300.00" id="mainline_eval_1_2" nVehContrib="25" flow="1500.00" occupancy="9.70" speed="21.63" length="5.00" nVehEntered="26"/>
    <interval begin="240.00" end="300.00" id="mainline_eval_2_0" nVehContrib="16" flow="960.00" occupancy="7.42" speed="19.01" length="5.00" nVehEntered="17"/>
    <interval begin="240.00" end="300.00" id="mainline_eval_2_1" nVehContrib="25" flow="1500.00" occupancy="10.47" speed="19.94" length="5.00" nVehEntered="25"/>
    <interval begin="240.00" end="300.00" id="mainline_eval_2_2" nVehContrib="30" flow="1800.00" occupancy="11.94" speed="21.06" length="5.00" nVehEntered="30"/>
    <interval begin="240.00" end="300.00" id="mainline_eval_3_0" nVehContrib="8" flow="480.00" occupancy="7.22" speed="9.72" length="5.00" nVehEntered="8"/>
    <interval begin="240.00" end="300.00" id="mainline_eval_3_1" nVehContrib="22" flow="1320.00" occupancy="17.03" speed="11.27" length="5.00" nVehEntered="23"/>
    <interval begin="240.00" end="300.00" id="mainline_eval_3_2" nVehContrib="30" flow="1800.00" occupancy="19.53" speed="16.47" length="5.00" nVehEntered="31"/>
    <interval begin="240.00" end="300.00" id="mainline_eval_3_3" nVehContrib="34" flow="2040.00" occupancy="14.95" speed="19.38" length="5.00" nVehEntered="35"/>
    <interval begin="240.00" end="300.00" id="mainline_eval_4_0" nVehContrib="1" flow="60.00" occupancy="0.98" speed="8.50" length="5.00" nVehEntered="1"/>
    <interval begin="240.00" end="300.00" id="mainline_eval_4_1" nVehContrib="25" flow="1500.00" occupancy="17.84" speed="12.92" length="5.00" nVehEntered="25"/>
    <interval begin="240.00" end="300.00" id="mainline_eval_4_2" nVehContrib="30" flow="1800.00" occupancy="15.59" speed="16.92" length="5.00" nVehEntered="30"/>
    <interval begin="240.00" end="300.00" id="mainline_eval_4_3" nVehContrib="35" flow="2100.00" occupancy="14.70" speed="19.93" length="5.00" nVehEntered="35"/>
    <interval begin="240.00" end="300.00" id="mainline_eval_5_0" nVehContrib="20" flow="1200.00" occupancy="9.20" speed="18.30" length="5.00" nVehEntered="20"/>
    <interval begin="240.00" end="300.00" id="mainline_eval_5_1" nVehContrib="27" flow="1620.00" occupancy="12.31" speed="18.85" length="5.00" nVehEntered="28"/>
    <interval begin="240.00" end="300.00" id="mainline_eval_5_2" nVehContrib="35" flow="2100.00" occupancy="14.66" speed="19.97" length="5.00" nVehEntered="35"/>
    <interval begin="240.00" end="300.00" id="mainline_eval_6_0" nVehContrib="23" flow="1380.00" occupancy="11.09" speed="17.60" length="5.00" nVehEntered="23"/>
    <interval begin="240.00" end="300.00" id="mainline_eval_6_1" nVehContrib="27" flow="1620.00" occupancy="13.02" speed="17.99" length="5.00" nVehEntered="28"/>
    <interval begin="240.00" end="300.00" id="mainline_eval_6_2" nVehContrib="35" flow="2100.00" occupancy="14.47" speed="20.23" length="5.00" nVehEntered="35"/>
    <interval begin="300.00" end="360.00" id="mainline_eval_0_0" nVehContrib="19" flow="1140.00" occupancy="9.11" speed="17.44" length="5.00" nVehEntered="19"/>
    <interval begin="300.00" end="360.00" id="mainline_eval_0_1" nVehContrib="33" flow="1980.00" occupancy="14.07" speed="19.57" length="5.00" nVehEntered="33"/>
    <interval begin="300.00" end="360.00" id="mainline_eval_0_2" nVehContrib="31" flow="1860.00" occupancy="12.34" speed="20.97" length="5.00" nVehEntered="31"/>
    <interval begin="300.00" end="360.00" id="mainline_eval_1_0" nVehContrib="17" flow="1020.00" occupancy="8.22" speed="17.29" length="5.00" nVehEntered="17"/>
    <interval begin="300.00" end="360.00" id="mainline_eval_1_1" nVehContrib="34" flow="2040.00" occupancy="14.94" speed="18.71" length="5.00" nVehEntered="33"/>
    <interval begin="300.00" end="360.00" id="mainline_eval_1_2" nVehContrib="36" flow="2160.00" occupancy="14.46" speed="20.74" length="5.00" nVehEntered="35"/>
    <interval begin="300.00" end="360.00" id="mainline_eval_2_0" nVehContrib="16" flow="960.00" occupancy="7.34" speed="17.33" length="5.00" nVehEntered="15"/>
    <interval begin="300.00" end="360.00" id="mainline_eval_2_1" nVehContrib="28" flow="1680.00" occupancy="12.15" speed="19.28" length="5.00" nVehEntered="28"/>
    <interval begin="300.00" end="360.00" id="mainline_eval_2_2" nVehContrib="33" flow="1980.00" occupancy="13.59" speed="20.29" length="5.00" nVehEntered="33"/>
    <interval begin="300.00" end="360.00" id="mainline_eval_3_0" nVehContrib="13" flow="780.00" occupancy="10.74" speed="11.35" length="5.00" nVehEntered="13"/>
    <interval begin="300.00" end="360.00" id="mainline_eval_3_1" nVehContrib="21" flow="1260.00" occupancy="21.80" speed="10.40" length="5.00" nVehEntered="22"/>
    <interval begin="300.00" end="360.00" id="mainline_eval_3_2" nVehContrib="32" flow="1920.00" occupancy="13.84" speed="18.65" length="5.00" nVehEntered="32"/>
    <interval begin="300.00" end="360.00" id="mainline_eval_3_3" nVehContrib="33" flow="1980.00" occupancy="13.27" speed="20.47" length="5.00" nVehEntered="32"/>
    <interval begin="300.00" end="360.00" id="mainline_eval_4_0" nVehContrib="5" flow="300.00" occupancy="4.59" speed="9.73" length="5.00" nVehEntered="5"/>
    <interval begin="300.00" end="360.00" id="mainline_eval_4_1" nVehContrib="25" flow="1500.00" occupancy="18.85" speed="12.51" length="5.00" nVehEntered="25"/>
    <interval begin="300.00" end="360.00" id="mainline_eval_4_2" nVehContrib="33" flow="1980.00" occupancy="16.04" speed="18.19" length="5.00" nVehEntered="33"/>
    <interval begin="300.00" end="360.00" id="mainline_eval_4_3" nVehContrib="34" flow="2040.00" occupancy="13.96" speed="20.36" length="5.00" nVehEntered="34"/>
    <interval begin="300.00" end="360.00" id="mainline_eval_5_0" nVehContrib="26" flow="1560.00" occupancy="11.90" speed="18.29" length="5.00" nVehEntered="26"/>
    <interval begin="300.00" end="360.00" id="mainline_eval_5_1" nVehContrib="33" flow="1980.00" occupancy="14.59" speed="18.55" length="5.00" nVehEntered="32"/>
    <interval begin="300.00" end="360.00" id="mainline_eval_5_2" nVehContrib="33" flow="1980.00" occupancy="13.16" speed="20.93" length="5.00" nVehEntered="33"/>
    <interval begin="300.00" end="360.00" id="mainline_eval_6_0" nVehContrib="26" flow="1560.00" occupancy="11.71" speed="18.54" length="5.00" nVehEntered="26"/>
    <interval begin="300.00" end="360.00" id="mainline_eval_6_1" nVehContrib="32" flow="1920.00" occupancy="13.60" speed="19.28" length="5.00" nVehEntered="31"/>
    <interval begin="300.00" end="360.00" id="mainline_eval_6_2" nVehContrib="32" flow="1920.00" occupancy="12.70" speed="21.02" length="5.00" nVehEntered="32"/>
</detector>
