<?xml version="1.0" encoding="UTF-8"?>

<!-- generated on 02/09/19 22:03:27 by Eclipse SUMO Version 1.0.1
<configuration xmlns:xsi="http://www.w3.org/2001/XMLSchema-instance" xsi:noNamespaceSchemaLocation="http://sumo.dlr.de/xsd/sumoConfiguration.xsd">

    <input>
        <net-file value="./project/ramp.net.xml"/>
        <route-files value="./project/ramp.rou.xml"/>
        <additional-files value="./project/ramp.add.xml"/>
    </input>

    <time>
        <begin value="0"/>
    </time>

    <report>
        <verbose value="true"/>
        <no-step-log value="true"/>
    </report>

    <traci_server>
        <remote-port value="51163"/>
    </traci_server>

    <random_number>
        <seed value="848421429"/>
    </random_number>

    <gui_only>
        <quit-on-end value="true"/>
        <start value="true"/>
    </gui_only>

</configuration>
-->

<detector xmlns:xsi="http://www.w3.org/2001/XMLSchema-instance" xsi:noNamespaceSchemaLocation="http://sumo.dlr.de/xsd/det_e1_file.xsd">
    <interval begin="0.00" end="60.00" id="mainline_eval_0_0" nVehContrib="2" flow="120.00" occupancy="0.66" speed="25.33" length="5.00" nVehEntered="2"/>
    <interval begin="0.00" end="60.00" id="mainline_eval_0_1" nVehContrib="0" flow="0.00" occupancy="0.00" speed="-1.00" length="-1.00" nVehEntered="0"/>
    <interval begin="0.00" end="60.00" id="mainline_eval_0_2" nVehContrib="0" flow="0.00" occupancy="0.00" speed="-1.00" length="-1.00" nVehEntered="0"/>
    <interval begin="0.00" end="60.00" id="mainline_eval_1_0" nVehContrib="0" flow="0.00" occupancy="0.00" speed="-1.00" length="-1.00" nVehEntered="0"/>
    <interval begin="0.00" end="60.00" id="mainline_eval_1_1" nVehContrib="0" flow="0.00" occupancy="0.00" speed="-1.00" length="-1.00" nVehEntered="0"/>
    <interval begin="0.00" end="60.00" id="mainline_eval_1_2" nVehContrib="0" flow="0.00" occupancy="0.00" speed="-1.00" length="-1.00" nVehEntered="0"/>
    <interval begin="0.00" end="60.00" id="mainline_eval_2_0" nVehContrib="0" flow="0.00" occupancy="0.00" speed="-1.00" length="-1.00" nVehEntered="0"/>
    <interval begin="0.00" end="60.00" id="mainline_eval_2_1" nVehContrib="0" flow="0.00" occupancy="0.00" speed="-1.00" length="-1.00" nVehEntered="0"/>
    <interval begin="0.00" end="60.00" id="mainline_eval_2_2" nVehContrib="0" flow="0.00" occupancy="0.00" speed="-1.00" length="-1.00" nVehEntered="0"/>
    <interval begin="0.00" end="60.00" id="mainline_eval_3_0" nVehContrib="0" flow="0.00" occupancy="0.00" speed="-1.00" length="-1.00" nVehEntered="0"/>
    <interval begin="0.00" end="60.00" id="mainline_eval_3_1" nVehContrib="0" flow="0.00" occupancy="0.00" speed="-1.00" length="-1.00" nVehEntered="0"/>
    <interval begin="0.00" end="60.00" id="mainline_eval_3_2" nVehContrib="0" flow="0.00" occupancy="0.00" speed="-1.00" length="-1.00" nVehEntered="0"/>
    <interval begin="0.00" end="60.00" id="mainline_eval_3_3" nVehContrib="0" flow="0.00" occupancy="0.00" speed="-1.00" length="-1.00" nVehEntered="0"/>
    <interval begin="0.00" end="60.00" id="mainline_eval_4_0" nVehContrib="0" flow="0.00" occupancy="0.00" speed="-1.00" length="-1.00" nVehEntered="0"/>
    <interval begin="0.00" end="60.00" id="mainline_eval_4_1" nVehContrib="0" flow="0.00" occupancy="0.00" speed="-1.00" length="-1.00" nVehEntered="0"/>
    <interval begin="0.00" end="60.00" id="mainline_eval_4_2" nVehContrib="0" flow="0.00" occupancy="0.00" speed="-1.00" length="-1.00" nVehEntered="0"/>
    <interval begin="0.00" end="60.00" id="mainline_eval_4_3" nVehContrib="0" flow="0.00" occupancy="0.00" speed="-1.00" length="-1.00" nVehEntered="0"/>
    <interval begin="0.00" end="60.00" id="mainline_eval_5_0" nVehContrib="0" flow="0.00" occupancy="0.00" speed="-1.00" length="-1.00" nVehEntered="0"/>
    <interval begin="0.00" end="60.00" id="mainline_eval_5_1" nVehContrib="0" flow="0.00" occupancy="0.00" speed="-1.00" length="-1.00" nVehEntered="0"/>
    <interval begin="0.00" end="60.00" id="mainline_eval_5_2" nVehContrib="0" flow="0.00" occupancy="0.00" speed="-1.00" length="-1.00" nVehEntered="0"/>
    <interval begin="0.00" end="60.00" id="mainline_eval_6_0" nVehContrib="0" flow="0.00" occupancy="0.00" speed="-1.00" length="-1.00" nVehEntered="0"/>
    <interval begin="0.00" end="60.00" id="mainline_eval_6_1" nVehContrib="0" flow="0.00" occupancy="0.00" speed="-1.00" length="-1.00" nVehEntered="0"/>
    <interval begin="0.00" end="60.00" id="mainline_eval_6_2" nVehContrib="0" flow="0.00" occupancy="0.00" speed="-1.00" length="-1.00" nVehEntered="0"/>
    <interval begin="60.00" end="120.00" id="mainline_eval_0_0" nVehContrib="16" flow="960.00" occupancy="6.84" speed="19.73" length="5.00" nVehEntered="16"/>
    <interval begin="60.00" end="120.00" id="mainline_eval_0_1" nVehContrib="15" flow="900.00" occupancy="5.86" speed="21.36" length="5.00" nVehEntered="15"/>
    <interval begin="60.00" end="120.00" id="mainline_eval_0_2" nVehContrib="21" flow="1260.00" occupancy="7.63" speed="23.03" length="5.00" nVehEntered="21"/>
    <interval begin="60.00" end="120.00" id="mainline_eval_1_0" nVehContrib="11" flow="660.00" occupancy="4.37" speed="21.39" length="5.00" nVehEntered="11"/>
    <interval begin="60.00" end="120.00" id="mainline_eval_1_1" nVehContrib="12" flow="720.00" occupancy="4.72" speed="21.24" length="5.00" nVehEntered="12"/>
    <interval begin="60.00" end="120.00" id="mainline_eval_1_2" nVehContrib="11" flow="660.00" occupancy="3.79" speed="24.26" length="5.00" nVehEntered="11"/>
    <interval begin="60.00" end="120.00" id="mainline_eval_2_0" nVehContrib="7" flow="420.00" occupancy="2.52" speed="23.29" length="5.00" nVehEntered="7"/>
    <interval begin="60.00" end="120.00" id="mainline_eval_2_1" nVehContrib="3" flow="180.00" occupancy="1.12" speed="22.36" length="5.00" nVehEntered="3"/>
    <interval begin="60.00" end="120.00" id="mainline_eval_2_2" nVehContrib="3" flow="180.00" occupancy="1.00" speed="25.10" length="5.00" nVehEntered="3"/>
    <interval begin="60.00" end="120.00" id="mainline_eval_3_0" nVehContrib="0" flow="0.00" occupancy="0.00" speed="-1.00" length="-1.00" nVehEntered="0"/>
    <interval begin="60.00" end="120.00" id="mainline_eval_3_1" nVehContrib="5" flow="300.00" occupancy="1.72" speed="24.34" length="5.00" nVehEntered="5"/>
    <interval begin="60.00" end="120.00" id="mainline_eval_3_2" nVehContrib="0" flow="0.00" occupancy="0.00" speed="-1.00" length="-1.00" nVehEntered="0"/>
    <interval begin="60.00" end="120.00" id="mainline_eval_3_3" nVehContrib="1" flow="60.00" occupancy="0.34" speed="24.20" length="5.00" nVehEntered="1"/>
    <interval begin="60.00" end="120.00" id="mainline_eval_4_0" nVehContrib="0" flow="0.00" occupancy="0.00" speed="-1.00" length="-1.00" nVehEntered="0"/>
    <interval begin="60.00" end="120.00" id="mainline_eval_4_1" nVehContrib="5" flow="300.00" occupancy="1.71" speed="24.46" length="5.00" nVehEntered="5"/>
    <interval begin="60.00" end="120.00" id="mainline_eval_4_2" nVehContrib="0" flow="0.00" occupancy="0.00" speed="-1.00" length="-1.00" nVehEntered="0"/>
    <interval begin="60.00" end="120.00" id="mainline_eval_4_3" nVehContrib="1" flow="60.00" occupancy="0.34" speed="24.27" length="5.00" nVehEntered="1"/>
    <interval begin="60.00" end="120.00" id="mainline_eval_5_0" nVehContrib="3" flow="180.00" occupancy="0.99" speed="25.14" length="5.00" nVehEntered="3"/>
    <interval begin="60.00" end="120.00" id="mainline_eval_5_1" nVehContrib="0" flow="0.00" occupancy="0.00" speed="-1.00" length="-1.00" nVehEntered="0"/>
    <interval begin="60.00" end="120.00" id="mainline_eval_5_2" nVehContrib="0" flow="0.00" occupancy="0.00" speed="-1.00" length="-1.00" nVehEntered="0"/>
    <interval begin="60.00" end="120.00" id="mainline_eval_6_0" nVehContrib="2" flow="120.00" occupancy="0.66" speed="25.39" length="5.00" nVehEntered="2"/>
    <interval begin="60.00" end="120.00" id="mainline_eval_6_1" nVehContrib="0" flow="0.00" occupancy="0.00" speed="-1.00" length="-1.00" nVehEntered="0"/>
    <interval begin="60.00" end="120.00" id="mainline_eval_6_2" nVehContrib="0" flow="0.00" occupancy="0.00" speed="-1.00" length="-1.00" nVehEntered="0"/>
    <interval begin="120.00" end="180.00" id="mainline_eval_0_0" nVehContrib="18" flow="1080.00" occupancy="8.33" speed="18.13" length="5.00" nVehEntered="18"/>
    <interval begin="120.00" end="180.00" id="mainline_eval_0_1" nVehContrib="17" flow="1020.00" occupancy="7.13" speed="19.91" length="5.00" nVehEntered="17"/>
    <interval begin="120.00" end="180.00" id="mainline_eval_0_2" nVehContrib="37" flow="2220.00" occupancy="13.90" speed="22.23" length="5.00" nVehEntered="37"/>
    <interval begin="120.00" end="180.00" id="mainline_eval_1_0" nVehContrib="16" flow="960.00" occupancy="7.41" speed="18.37" length="5.00" nVehEntered="17"/>
    <interval begin="120.00" end="180.00" id="mainline_eval_1_1" nVehContrib="23" flow="1380.00" occupancy="9.60" speed="20.15" length="5.00" nVehEntered="23"/>
    <interval begin="120.00" end="180.00" id="mainline_eval_1_2" nVehContrib="31" flow="1860.00" occupancy="11.34" speed="22.82" length="5.00" nVehEntered="31"/>
    <interval begin="120.00" end="180.00" id="mainline_eval_2_0" nVehContrib="13" flow="780.00" occupancy="5.78" speed="18.84" length="5.00" nVehEntered="13"/>
    <interval begin="120.00" end="180.00" id="mainline_eval_2_1" nVehContrib="20" flow="1200.00" occupancy="7.99" speed="20.87" length="5.00" nVehEntered="20"/>
    <interval begin="120.00" end="180.00" id="mainline_eval_2_2" nVehContrib="30" flow="1800.00" occupancy="10.85" speed="23.05" length="5.00" nVehEntered="30"/>
    <interval begin="120.00" end="180.00" id="mainline_eval_3_0" nVehContrib="1" flow="60.00" occupancy="0.87" speed="9.54" length="5.00" nVehEntered="1"/>
    <interval begin="120.00" end="180.00" id="mainline_eval_3_1" nVehContrib="19" flow="1140.00" occupancy="10.47" speed="16.43" length="5.00" nVehEntered="19"/>
    <interval begin="120.00" end="180.00" id="mainline_eval_3_2" nVehContrib="17" flow="1020.00" occupancy="6.81" speed="20.85" length="5.00" nVehEntered="18"/>
    <interval begin="120.00" end="180.00" id="mainline_eval_3_3" nVehContrib="29" flow="1740.00" occupancy="12.09" speed="22.23" length="5.00" nVehEntered="29"/>
    <interval begin="120.00" end="180.00" id="mainline_eval_4_0" nVehContrib="0" flow="0.00" occupancy="0.00" speed="-1.00" length="-1.00" nVehEntered="0"/>
    <interval begin="120.00" end="180.00" id="mainline_eval_4_1" nVehContrib="19" flow="1140.00" occupancy="9.31" speed="17.40" length="5.00" nVehEntered="19"/>
    <interval begin="120.00" end="180.00" id="mainline_eval_4_2" nVehContrib="17" flow="1020.00" occupancy="6.96" speed="20.50" length="5.00" nVehEntered="17"/>
    <interval begin="120.00" end="180.00" id="mainline_eval_4_3" nVehContrib="27" flow="1620.00" occupancy="9.77" speed="23.09" length="5.00" nVehEntered="27"/>
    <interval begin="120.00" end="180.00" id="mainline_eval_5_0" nVehContrib="16" flow="960.00" occupancy="6.75" speed="19.96" length="5.00" nVehEntered="16"/>
    <interval begin="120.00" end="180.00" id="mainline_eval_5_1" nVehContrib="19" flow="1140.00" occupancy="7.65" speed="20.73" length="5.00" nVehEntered="19"/>
    <interval begin="120.00" end="180.00" id="mainline_eval_5_2" nVehContrib="24" flow="1440.00" occupancy="8.60" speed="23.28" length="5.00" nVehEntered="24"/>
    <interval begin="120.00" end="180.00" id="mainline_eval_6_0" nVehContrib="15" flow="900.00" occupancy="6.22" speed="20.43" length="5.00" nVehEntered="15"/>
    <interval begin="120.00" end="180.00" id="mainline_eval_6_1" nVehContrib="16" flow="960.00" occupancy="6.41" speed="20.84" length="5.00" nVehEntered="16"/>
    <interval begin="120.00" end="180.00" id="mainline_eval_6_2" nVehContrib="21" flow="1260.00" occupancy="7.55" speed="23.21" length="5.00" nVehEntered="21"/>
    <interval begin="180.00" end="240.00" id="mainline_eval_0_0" nVehContrib="16" flow="960.00" occupancy="7.33" speed="18.25" length="5.00" nVehEntered="16"/>
    <interval begin="180.00" end="240.00" id="mainline_eval_0_1" nVehContrib="25" flow="1500.00" occupancy="11.13" speed="18.81" length="5.00" nVehEntered="25"/>
    <interval begin="180.00" end="240.00" id="mainline_eval_0_2" nVehContrib="32" flow="1920.00" occupancy="12.58" speed="21.25" length="5.00" nVehEntered="32"/>
    <interval begin="180.00" end="240.00" id="mainline_eval_1_0" nVehContrib="12" flow="720.00" occupancy="5.31" speed="18.48" length="5.00" nVehEntered="11"/>
    <interval begin="180.00" end="240.00" id="mainline_eval_1_1" nVehContrib="18" flow="1080.00" occupancy="8.08" speed="18.65" length="5.00" nVehEntered="18"/>
    <interval begin="180.00" end="240.00" id="mainline_eval_1_2" nVehContrib="38" flow="2280.00" occupancy="14.85" speed="21.38" length="5.00" nVehEntered="38"/>
    <interval begin="180.00" end="240.00" id="mainline_eval_2_0" nVehContrib="16" flow="960.00" occupancy="7.32" speed="18.37" length="5.00" nVehEntered="16"/>
    <interval begin="180.00" end="240.00" id="mainline_eval_2_1" nVehContrib="22" flow="1320.00" occupancy="9.07" speed="20.32" length="5.00" nVehEntered="22"/>
    <interval begin="180.00" end="240.00" id="mainline_eval_2_2" nVehContrib="36" flow="2160.00" occupancy="13.71" speed="21.93" length="5.00" nVehEntered="36"/>
    <interval begin="180.00" end="240.00" id="mainline_eval_3_0" nVehContrib="3" flow="180.00" occupancy="1.94" speed="12.86" length="5.00" nVehEntered="3"/>
    <interval begin="180.00" end="240.00" id="mainline_eval_3_1" nVehContrib="18" flow="1080.00" occupancy="9.40" speed="16.36" length="5.00" nVehEntered="18"/>
    <interval begin="180.00" end="240.00" id="mainline_eval_3_2" nVehContrib="24" flow="1440.00" occupancy="10.30" speed="19.52" length="5.00" nVehEntered="24"/>
    <interval begin="180.00" end="240.00" id="mainline_eval_3_3" nVehContrib="34" flow="2040.00" occupancy="13.06" speed="22.05" length="5.00" nVehEntered="35"/>
    <interval begin="180.00" end="240.00" id="mainline_eval_4_0" nVehContrib="2" flow="120.00" occupancy="1.23" speed="13.54" length="5.00" nVehEntered="2"/>
    <interval begin="180.00" end="240.00" id="mainline_eval_4_1" nVehContrib="18" flow="1080.00" occupancy="8.95" speed="16.96" length="5.00" nVehEntered="18"/>
    <interval begin="180.00" end="240.00" id="mainline_eval_4_2" nVehContrib="24" flow="1440.00" occupancy="11.00" speed="18.49" length="5.00" nVehEntered="24"/>
    <interval begin="180.00" end="240.00" id="mainline_eval_4_3" nVehContrib="35" flow="2100.00" occupancy="13.17" speed="22.24" length="5.00" nVehEntered="35"/>
    <interval begin="180.00" end="240.00" id="mainline_eval_5_0" nVehContrib="16" flow="960.00" occupancy="7.34" speed="18.20" length="5.00" nVehEntered="16"/>
    <interval begin="180.00" end="240.00" id="mainline_eval_5_1" nVehContrib="20" flow="1200.00" occupancy="9.25" speed="18.78" length="5.00" nVehEntered="21"/>
    <interval begin="180.00" end="240.00" id="mainline_eval_5_2" nVehContrib="33" flow="1980.00" occupancy="12.25" speed="22.49" length="5.00" nVehEntered="33"/>
    <interval begin="180.00" end="240.00" id="mainline_eval_6_0" nVehContrib="18" flow="1080.00" occupancy="8.40" speed="18.00" length="5.00" nVehEntered="18"/>
    <interval begin="180.00" end="240.00" id="mainline_eval_6_1" nVehContrib="23" flow="1380.00" occupancy="10.13" speed="19.07" length="5.00" nVehEntered="23"/>
    <interval begin="180.00" end="240.00" id="mainline_eval_6_2" nVehContrib="34" flow="2040.00" occupancy="12.48" speed="22.71" length="5.00" nVehEntered="34"/>
    <interval begin="240.00" end="300.00" id="mainline_eval_0_0" nVehContrib="20" flow="1200.00" occupancy="9.23" speed="18.17" length="5.00" nVehEntered="20"/>
    <interval begin="240.00" end="300.00" id="mainline_eval_0_1" nVehContrib="27" flow="1620.00" occupancy="11.91" speed="19.48" length="5.00" nVehEntered="28"/>
    <interval begin="240.00" end="300.00" id="mainline_eval_0_2" nVehContrib="36" flow="2160.00" occupancy="15.38" speed="19.55" length="5.00" nVehEntered="36"/>
    <interval begin="240.00" end="300.00" id="mainline_eval_1_0" nVehContrib="24" flow="1440.00" occupancy="11.37" speed="17.71" length="5.00" nVehEntered="24"/>
    <interval begin="240.00" end="300.00" id="mainline_eval_1_1" nVehContrib="28" flow="1680.00" occupancy="12.25" speed="19.25" length="5.00" nVehEntered="28"/>
    <interval begin="240.00" end="300.00" id="mainline_eval_1_2" nVehContrib="30" flow="1800.00" occupancy="11.97" speed="20.98" length="5.00" nVehEntered="30"/>
    <interval begin="240.00" end="300.00" id="mainline_eval_2_0" nVehContrib="15" flow="900.00" occupancy="7.28" speed="17.29" length="5.00" nVehEntered="15"/>
    <interval begin="240.00" end="300.00" id="mainline_eval_2_1" nVehContrib="25" flow="1500.00" occupancy="11.32" speed="18.69" length="5.00" nVehEntered="25"/>
    <interval begin="240.00" end="300.00" id="mainline_eval_2_2" nVehContrib="30" flow="1800.00" occupancy="11.90" speed="21.08" length="5.00" nVehEntered="30"/>
    <interval begin="240.00" end="300.00" id="mainline_eval_3_0" nVehContrib="6" flow="360.00" occupancy="5.32" speed="10.15" length="5.00" nVehEntered="6"/>
    <interval begin="240.00" end="300.00" id="mainline_eval_3_1" nVehContrib="18" flow="1080.00" occupancy="12.22" speed="13.47" length="5.00" nVehEntered="18"/>
    <interval begin="240.00" end="300.00" id="mainline_eval_3_2" nVehContrib="26" flow="1560.00" occupancy="12.70" speed="17.97" length="5.00" nVehEntered="26"/>
    <interval begin="240.00" end="300.00" id="mainline_eval_3_3" nVehContrib="31" flow="1860.00" occupancy="11.49" speed="22.24" length="5.00" nVehEntered="30"/>
    <interval begin="240.00" end="300.00" id="mainline_eval_4_0" nVehContrib="2" flow="120.00" occupancy="2.97" speed="7.62" length="5.00" nVehEntered="3"/>
    <interval begin="240.00" end="300.00" id="mainline_eval_4_1" nVehContrib="20" flow="1200.00" occupancy="14.06" speed="13.80" length="5.00" nVehEntered="20"/>
    <interval begin="240.00" end="300.00" id="mainline_eval_4_2" nVehContrib="26" flow="1560.00" occupancy="12.23" speed="18.35" length="5.00" nVehEntered="26"/>
    <interval begin="240.00" end="300.00" id="mainline_eval_4_3" nVehContrib="32" flow="1920.00" occupancy="12.36" speed="21.70" length="5.00" nVehEntered="32"/>
    <interval begin="240.00" end="300.00" id="mainline_eval_5_0" nVehContrib="20" flow="1200.00" occupancy="9.03" speed="18.63" length="5.00" nVehEntered="21"/>
    <interval begin="240.00" end="300.00" id="mainline_eval_5_1" nVehContrib="27" flow="1620.00" occupancy="11.85" speed="18.50" length="5.00" nVehEntered="26"/>
    <interval begin="240.00" end="300.00" id="mainline_eval_5_2" nVehContrib="37" flow="2220.00" occupancy="14.66" speed="21.13" length="5.00" nVehEntered="37"/>
    <interval begin="240.00" end="300.00" id="mainline_eval_6_0" nVehContrib="17" flow="1020.00" occupancy="7.56" speed="18.82" length="5.00" nVehEntered="17"/>
    <interval begin="240.00" end="300.00" id="mainline_eval_6_1" nVehContrib="24" flow="1440.00" occupancy="10.80" speed="18.60" length="5.00" nVehEntered="24"/>
    <interval begin="240.00" end="300.00" id="mainline_eval_6_2" nVehContrib="37" flow="2220.00" occupancy="14.59" speed="21.22" length="5.00" nVehEntered="37"/>
    <interval begin="300.00" end="360.00" id="mainline_eval_0_0" nVehContrib="19" flow="1140.00" occupancy="9.02" speed="17.65" length="5.00" nVehEntered="19"/>
    <interval begin="300.00" end="360.00" id="mainline_eval_0_1" nVehContrib="24" flow="1440.00" occupancy="10.77" speed="18.30" length="5.00" nVehEntered="23"/>
    <interval begin="300.00" end="360.00" id="mainline_eval_0_2" nVehContrib="34" flow="2040.00" occupancy="13.75" speed="20.66" length="5.00" nVehEntered="34"/>
    <interval begin="300.00" end="360.00" id="mainline_eval_1_0" nVehContrib="16" flow="960.00" occupancy="7.46" speed="17.94" length="5.00" nVehEntered="16"/>
    <interval begin="300.00" end="360.00" id="mainline_eval_1_1" nVehContrib="24" flow="1440.00" occupancy="10.41" speed="19.27" length="5.00" nVehEntered="24"/>
    <interval begin="300.00" end="360.00" id="mainline_eval_1_2" nVehContrib="33" flow="1980.00" occupancy="13.84" speed="19.99" length="5.00" nVehEntered="33"/>
    <interval begin="300.00" end="360.00" id="mainline_eval_2_0" nVehContrib="19" flow="1140.00" occupancy="8.46" speed="18.80" length="5.00" nVehEntered="19"/>
    <interval begin="300.00" end="360.00" id="mainline_eval_2_1" nVehContrib="28" flow="1680.00" occupancy="11.78" speed="19.82" length="5.00" nVehEntered="28"/>
    <interval begin="300.00" end="360.00" id="mainline_eval_2_2" nVehContrib="39" flow="2340.00" occupancy="15.99" speed="20.35" length="5.00" nVehEntered="39"/>
    <interval begin="300.00" end="360.00" id="mainline_eval_3_0" nVehContrib="8" flow="480.00" occupancy="10.58" speed="8.67" length="5.00" nVehEntered="8"/>
    <interval begin="300.00" end="360.00" id="mainline_eval_3_1" nVehContrib="21" flow="1260.00" occupancy="14.43" speed="13.15" length="5.00" nVehEntered="21"/>
    <interval begin="300.00" end="360.00" id="mainline_eval_3_2" nVehContrib="33" flow="1980.00" occupancy="15.27" speed="18.24" length="5.00" nVehEntered="33"/>
    <interval begin="300.00" end="360.00" id="mainline_eval_3_3" nVehContrib="38" flow="2280.00" occupancy="16.31" speed="19.48" length="5.00" nVehEntered="38"/>
    <interval begin="300.00" end="360.00" id="mainline_eval_4_0" nVehContrib="4" flow="240.00" occupancy="4.42" speed="8.07" length="5.00" nVehEntered="4"/>
    <interval begin="300.00" end="360.00" id="mainline_eval_4_1" nVehContrib="23" flow="1380.00" occupancy="19.07" speed="11.44" length="5.00" nVehEntered="23"/>
    <interval begin="300.00" end="360.00" id="mainline_eval_4_2" nVehContrib="34" flow="2040.00" occupancy="16.59" speed="17.70" length="5.00" nVehEntered="34"/>
    <interval begin="300.00" end="360.00" id="mainline_eval_4_3" nVehContrib="39" flow="2340.00" occupancy="16.51" speed="19.77" length="5.00" nVehEntered="39"/>
    <interval begin="300.00" end="360.00" id="mainline_eval_5_0" nVehContrib="26" flow="1560.00" occupancy="11.93" speed="18.16" length="5.00" nVehEntered="25"/>
    <interval begin="300.00" end="360.00" id="mainline_eval_5_1" nVehContrib="33" flow="1980.00" occupancy="14.40" speed="19.15" length="5.00" nVehEntered="33"/>
    <interval begin="300.00" end="360.00" id="mainline_eval_5_2" nVehContrib="36" flow="2160.00" occupancy="14.78" speed="20.32" length="5.00" nVehEntered="36"/>
    <interval begin="300.00" end="360.00" id="mainline_eval_6_0" nVehContrib="27" flow="1620.00" occupancy="12.93" speed="17.54" length="5.00" nVehEntered="27"/>
    <interval begin="300.00" end="360.00" id="mainline_eval_6_1" nVehContrib="33" flow="1980.00" occupancy="14.25" speed="19.36" length="5.00" nVehEntered="33"/>
    <interval begin="300.00" end="360.00" id="mainline_eval_6_2" nVehContrib="35" flow="2100.00" occupancy="14.41" speed="20.25" length="5.00" nVehEntered="35"/>
    <interval begin="360.00" end="420.00" id="mainline_eval_0_0" nVehContrib="18" flow="1080.00" occupancy="8.16" speed="18.48" length="5.00" nVehEntered="18"/>
    <interval begin="360.00" end="420.00" id="mainline_eval_0_1" nVehContrib="24" flow="1440.00" occupancy="10.51" speed="19.23" length="5.00" nVehEntered="25"/>
    <interval begin="360.00" end="420.00" id="mainline_eval_0_2" nVehContrib="36" flow="2160.00" occupancy="14.98" speed="20.07" length="5.00" nVehEntered="36"/>
    <interval begin="360.00" end="420.00" id="mainline_eval_1_0" nVehContrib="18" flow="1080.00" occupancy="8.57" speed="17.67" length="5.00" nVehEntered="18"/>
    <interval begin="360.00" end="420.00" id="mainline_eval_1_1" nVehContrib="29" flow="1740.00" occupancy="13.53" speed="18.51" length="5.00" nVehEntered="30"/>
    <interval begin="360.00" end="420.00" id="mainline_eval_1_2" nVehContrib="38" flow="2280.00" occupancy="15.29" speed="20.75" length="5.00" nVehEntered="38"/>
    <interval begin="360.00" end="420.00" id="mainline_eval_2_0" nVehContrib="18" flow="1080.00" occupancy="8.27" speed="18.18" length="5.00" nVehEntered="18"/>
    <interval begin="360.00" end="420.00" id="mainline_eval_2_1" nVehContrib="29" flow="1740.00" occupancy="12.83" speed="18.98" length="5.00" nVehEntered="29"/>
    <interval begin="360.00" end="420.00" id="mainline_eval_2_2" nVehContrib="35" flow="2100.00" occupancy="14.01" speed="20.86" length="5.00" nVehEntered="35"/>
    <interval begin="360.00" end="420.00" id="mainline_eval_3_0" nVehContrib="4" flow="240.00" occupancy="2.87" speed="11.73" length="5.00" nVehEntered="4"/>
    <interval begin="360.00" end="420.00" id="mainline_eval_3_1" nVehContrib="23" flow="1380.00" occupancy="13.15" speed="15.37" length="5.00" nVehEntered="23"/>
    <interval begin="360.00" end="420.00" id="mainline_eval_3_2" nVehContrib="29" flow="1740.00" occupancy="12.96" speed="18.83" length="5.00" nVehEntered="30"/>
    <interval begin="360.00" end="420.00" id="mainline_eval_3_3" nVehContrib="34" flow="2040.00" occupancy="13.59" speed="20.95" length="5.00" nVehEntered="35"/>
    <interval begin="360.00" end="420.00" id="mainline_eval_4_0" nVehContrib="2" flow="120.00" occupancy="1.46" speed="11.41" length="5.00" nVehEntered="2"/>
    <interval begin="360.00" end="420.00" id="mainline_eval_4_1" nVehContrib="25" flow="1500.00" occupancy="13.11" speed="16.04" length="5.00" nVehEntered="25"/>
    <interval begin="360.00" end="420.00" id="mainline_eval_4_2" nVehContrib="29" flow="1740.00" occupancy="13.02" speed="18.69" length="5.00" nVehEntered="29"/>
    <interval begin="360.00" end="420.00" id="mainline_eval_4_3" nVehContrib="35" flow="2100.00" occupancy="13.99" speed="20.91" length="5.00" nVehEntered="35"/>
    <interval begin="360.00" end="420.00" id="mainline_eval_5_0" nVehContrib="24" flow="1440.00" occupancy="10.99" speed="18.33" length="5.00" nVehEntered="24"/>
    <interval begin="360.00" end="420.00" id="mainline_eval_5_1" nVehContrib="28" flow="1680.00" occupancy="12.34" speed="19.03" length="5.00" nVehEntered="28"/>
    <interval begin="360.00" end="420.00" id="mainline_eval_5_2" nVehContrib="35" flow="2100.00" occupancy="14.12" speed="20.69" length="5.00" nVehEntered="35"/>
    <interval begin="360.00" end="420.00" id="mainline_eval_6_0" nVehContrib="23" flow="1380.00" occupancy="10.90" speed="17.71" length="5.00" nVehEntered="23"/>
    <interval begin="360.00" end="420.00" id="mainline_eval_6_1" nVehContrib="29" flow="1740.00" occupancy="13.20" speed="18.46" length="5.00" nVehEntered="29"/>
    <interval begin="360.00" end="420.00" id="mainline_eval_6_2" nVehContrib="34" flow="2040.00" occupancy="13.72" speed="20.94" length="5.00" nVehEntered="35"/>
    <interval begin="420.00" end="480.00" id="mainline_eval_0_0" nVehContrib="16" flow="960.00" occupancy="7.27" speed="18.44" length="5.00" nVehEntered="16"/>
    <interval begin="420.00" end="480.00" id="mainline_eval_0_1" nVehContrib="31" flow="1860.00" occupancy="13.33" speed="19.33" length="5.00" nVehEntered="30"/>
    <interval begin="420.00" end="480.00" id="mainline_eval_0_2" nVehContrib="33" flow="1980.00" occupancy="13.51" speed="20.84" length="5.00" nVehEntered="34"/>
    <interval begin="420.00" end="480.00" id="mainline_eval_1_0" nVehContrib="20" flow="1200.00" occupancy="9.27" speed="18.17" length="5.00" nVehEntered="20"/>
    <interval begin="420.00" end="480.00" id="mainline_eval_1_1" nVehContrib="27" flow="1620.00" occupancy="11.33" speed="19.40" length="5.00" nVehEntered="26"/>
    <interval begin="420.00" end="480.00" id="mainline_eval_1_2" nVehContrib="34" flow="2040.00" occupancy="13.40" speed="21.20" length="5.00" nVehEntered="34"/>
    <interval begin="420.00" end="480.00" id="mainline_eval_2_0" nVehContrib="16" flow="960.00" occupancy="7.36" speed="18.22" length="5.00" nVehEntered="16"/>
    <interval begin="420.00" end="480.00" id="mainline_eval_2_1" nVehContrib="23" flow="1380.00" occupancy="10.11" speed="19.03" length="5.00" nVehEntered="23"/>
    <interval begin="420.00" end="480.00" id="mainline_eval_2_2" nVehContrib="35" flow="2100.00" occupancy="14.23" speed="20.55" length="5.00" nVehEntered="35"/>
    <interval begin="420.00" end="480.00" id="mainline_eval_3_0" nVehContrib="1" flow="60.00" occupancy="0.84" speed="9.94" length="5.00" nVehEntered="2"/>
    <interval begin="420.00" end="480.00" id="mainline_eval_3_1" nVehContrib="21" flow="1260.00" occupancy="12.81" speed="15.65" length="5.00" nVehEntered="21"/>
    <interval begin="420.00" end="480.00" id="mainline_eval_3_2" nVehContrib="30" flow="1800.00" occupancy="13.12" speed="19.06" length="5.00" nVehEntered="29"/>
    <interval begin="420.00" end="480.00" id="mainline_eval_3_3" nVehContrib="36" flow="2160.00" occupancy="14.73" speed="20.39" length="5.00" nVehEntered="35"/>
    <interval begin="420.00" end="480.00" id="mainline_eval_4_0" nVehContrib="0" flow="0.00" occupancy="0.00" speed="-1.00" length="-1.00" nVehEntered="0"/>
    <interval begin="420.00" end="480.00" id="mainline_eval_4_1" nVehContrib="22" flow="1320.00" occupancy="11.47" speed="16.33" length="5.00" nVehEntered="22"/>
    <interval begin="420.00" end="480.00" id="mainline_eval_4_2" nVehContrib="29" flow="1740.00" occupancy="13.15" speed="18.53" length="5.00" nVehEntered="29"/>
    <interval begin="420.00" end="480.00" id="mainline_eval_4_3" nVehContrib="35" flow="2100.00" occupancy="14.68" speed="20.07" length="5.00" nVehEntered="36"/>
    <interval begin="420.00" end="480.00" id="mainline_eval_5_0" nVehContrib="26" flow="1560.00" occupancy="11.60" speed="18.75" length="5.00" nVehEntered="26"/>
    <interval begin="420.00" end="480.00" id="mainline_eval_5_1" nVehContrib="31" flow="1860.00" occupancy="13.17" speed="19.64" length="5.00" nVehEntered="31"/>
    <interval begin="420.00" end="480.00" id="mainline_eval_5_2" nVehContrib="36" flow="2160.00" occupancy="14.82" speed="20.27" length="5.00" nVehEntered="36"/>