<?xml version="1.0" encoding="UTF-8"?>

<!-- generated on 02/12/19 15:51:20 by Eclipse SUMO Version 1.0.1
<configuration xmlns:xsi="http://www.w3.org/2001/XMLSchema-instance" xsi:noNamespaceSchemaLocation="http://sumo.dlr.de/xsd/sumoConfiguration.xsd">

    <input>
        <net-file value="./project/ramp.net.xml"/>
        <route-files value="./project/ramp.rou.xml"/>
        <additional-files value="./project/ramp.add.xml"/>
    </input>

    <time>
        <begin value="0"/>
    </time>

    <report>
        <verbose value="true"/>
        <no-step-log value="true"/>
    </report>

    <traci_server>
        <remote-port value="56967"/>
    </traci_server>

    <random_number>
        <seed value="1594548030"/>
    </random_number>

    <gui_only>
        <quit-on-end value="true"/>
        <start value="true"/>
    </gui_only>

</configuration>
-->

<detector xmlns:xsi="http://www.w3.org/2001/XMLSchema-instance" xsi:noNamespaceSchemaLocation="http://sumo.dlr.de/xsd/det_e1_file.xsd">
    <interval begin="0.00" end="60.00" id="mainline_eval_0_0" nVehContrib="0" flow="0.00" occupancy="0.00" speed="-1.00" length="-1.00" nVehEntered="0"/>
    <interval begin="0.00" end="60.00" id="mainline_eval_0_1" nVehContrib="0" flow="0.00" occupancy="0.00" speed="-1.00" length="-1.00" nVehEntered="0"/>
    <interval begin="0.00" end="60.00" id="mainline_eval_0_2" nVehContrib="0" flow="0.00" occupancy="0.00" speed="-1.00" length="-1.00" nVehEntered="0"/>
    <interval begin="0.00" end="60.00" id="mainline_eval_1_0" nVehContrib="0" flow="0.00" occupancy="0.00" speed="-1.00" length="-1.00" nVehEntered="0"/>
    <interval begin="0.00" end="60.00" id="mainline_eval_1_1" nVehContrib="0" flow="0.00" occupancy="0.00" speed="-1.00" length="-1.00" nVehEntered="0"/>
    <interval begin="0.00" end="60.00" id="mainline_eval_1_2" nVehContrib="0" flow="0.00" occupancy="0.00" speed="-1.00" length="-1.00" nVehEntered="0"/>
    <interval begin="0.00" end="60.00" id="mainline_eval_2_0" nVehContrib="0" flow="0.00" occupancy="0.00" speed="-1.00" length="-1.00" nVehEntered="0"/>
    <interval begin="0.00" end="60.00" id="mainline_eval_2_1" nVehContrib="0" flow="0.00" occupancy="0.00" speed="-1.00" length="-1.00" nVehEntered="0"/>
    <interval begin="0.00" end="60.00" id="mainline_eval_2_2" nVehContrib="0" flow="0.00" occupancy="0.00" speed="-1.00" length="-1.00" nVehEntered="0"/>
    <interval begin="0.00" end="60.00" id="mainline_eval_3_0" nVehContrib="0" flow="0.00" occupancy="0.00" speed="-1.00" length="-1.00" nVehEntered="0"/>
    <interval begin="0.00" end="60.00" id="mainline_eval_3_1" nVehContrib="0" flow="0.00" occupancy="0.00" speed="-1.00" length="-1.00" nVehEntered="0"/>
    <interval begin="0.00" end="60.00" id="mainline_eval_3_2" nVehContrib="0" flow="0.00" occupancy="0.00" speed="-1.00" length="-1.00" nVehEntered="0"/>
    <interval begin="0.00" end="60.00" id="mainline_eval_3_3" nVehContrib="0" flow="0.00" occupancy="0.00" speed="-1.00" length="-1.00" nVehEntered="0"/>
    <interval begin="0.00" end="60.00" id="mainline_eval_4_0" nVehContrib="0" flow="0.00" occupancy="0.00" speed="-1.00" length="-1.00" nVehEntered="0"/>
    <interval begin="0.00" end="60.00" id="mainline_eval_4_1" nVehContrib="0" flow="0.00" occupancy="0.00" speed="-1.00" length="-1.00" nVehEntered="0"/>
    <interval begin="0.00" end="60.00" id="mainline_eval_4_2" nVehContrib="0" flow="0.00" occupancy="0.00" speed="-1.00" length="-1.00" nVehEntered="0"/>
    <interval begin="0.00" end="60.00" id="mainline_eval_4_3" nVehContrib="0" flow="0.00" occupancy="0.00" speed="-1.00" length="-1.00" nVehEntered="0"/>
    <interval begin="0.00" end="60.00" id="mainline_eval_5_0" nVehContrib="0" flow="0.00" occupancy="0.00" speed="-1.00" length="-1.00" nVehEntered="0"/>
    <interval begin="0.00" end="60.00" id="mainline_eval_5_1" nVehContrib="0" flow="0.00" occupancy="0.00" speed="-1.00" length="-1.00" nVehEntered="0"/>
    <interval begin="0.00" end="60.00" id="mainline_eval_5_2" nVehContrib="0" flow="0.00" occupancy="0.00" speed="-1.00" length="-1.00" nVehEntered="0"/>
    <interval begin="0.00" end="60.00" id="mainline_eval_6_0" nVehContrib="0" flow="0.00" occupancy="0.00" speed="-1.00" length="-1.00" nVehEntered="0"/>
    <interval begin="0.00" end="60.00" id="mainline_eval_6_1" nVehContrib="0" flow="0.00" occupancy="0.00" speed="-1.00" length="-1.00" nVehEntered="0"/>
    <interval begin="0.00" end="60.00" id="mainline_eval_6_2" nVehContrib="0" flow="0.00" occupancy="0.00" speed="-1.00" length="-1.00" nVehEntered="0"/>
    <interval begin="60.00" end="120.00" id="mainline_eval_0_0" nVehContrib="15" flow="900.00" occupancy="6.30" speed="19.90" length="5.00" nVehEntered="15"/>
    <interval begin="60.00" end="120.00" id="mainline_eval_0_1" nVehContrib="15" flow="900.00" occupancy="6.20" speed="20.30" length="5.00" nVehEntered="15"/>
    <interval begin="60.00" end="120.00" id="mainline_eval_0_2" nVehContrib="24" flow="1440.00" occupancy="9.01" speed="22.31" length="5.00" nVehEntered="24"/>
    <interval begin="60.00" end="120.00" id="mainline_eval_1_0" nVehContrib="9" flow="540.00" occupancy="3.78" speed="19.92" length="5.00" nVehEntered="9"/>
    <interval begin="60.00" end="120.00" id="mainline_eval_1_1" nVehContrib="9" flow="540.00" occupancy="3.56" speed="21.17" length="5.00" nVehEntered="9"/>
    <interval begin="60.00" end="120.00" id="mainline_eval_1_2" nVehContrib="12" flow="720.00" occupancy="4.38" speed="22.98" length="5.00" nVehEntered="12"/>
    <interval begin="60.00" end="120.00" id="mainline_eval_2_0" nVehContrib="5" flow="300.00" occupancy="1.98" speed="21.10" length="5.00" nVehEntered="5"/>
    <interval begin="60.00" end="120.00" id="mainline_eval_2_1" nVehContrib="3" flow="180.00" occupancy="1.17" speed="21.39" length="5.00" nVehEntered="3"/>
    <interval begin="60.00" end="120.00" id="mainline_eval_2_2" nVehContrib="5" flow="300.00" occupancy="1.91" speed="24.63" length="5.00" nVehEntered="6"/>
    <interval begin="60.00" end="120.00" id="mainline_eval_3_0" nVehContrib="0" flow="0.00" occupancy="0.00" speed="-1.00" length="-1.00" nVehEntered="0"/>
    <interval begin="60.00" end="120.00" id="mainline_eval_3_1" nVehContrib="3" flow="180.00" occupancy="1.16" speed="21.63" length="5.00" nVehEntered="3"/>
    <interval begin="60.00" end="120.00" id="mainline_eval_3_2" nVehContrib="1" flow="60.00" occupancy="0.33" speed="25.50" length="5.00" nVehEntered="1"/>
    <interval begin="60.00" end="120.00" id="mainline_eval_3_3" nVehContrib="2" flow="120.00" occupancy="0.60" speed="27.89" length="5.00" nVehEntered="2"/>
    <interval begin="60.00" end="120.00" id="mainline_eval_4_0" nVehContrib="0" flow="0.00" occupancy="0.00" speed="-1.00" length="-1.00" nVehEntered="0"/>
    <interval begin="60.00" end="120.00" id="mainline_eval_4_1" nVehContrib="2" flow="120.00" occupancy="0.74" speed="22.63" length="5.00" nVehEntered="2"/>
    <interval begin="60.00" end="120.00" id="mainline_eval_4_2" nVehContrib="1" flow="60.00" occupancy="0.34" speed="24.82" length="5.00" nVehEntered="1"/>
    <interval begin="60.00" end="120.00" id="mainline_eval_4_3" nVehContrib="2" flow="120.00" occupancy="0.60" speed="27.90" length="5.00" nVehEntered="2"/>
    <interval begin="60.00" end="120.00" id="mainline_eval_5_0" nVehContrib="0" flow="0.00" occupancy="0.00" speed="-1.00" length="-1.00" nVehEntered="0"/>
    <interval begin="60.00" end="120.00" id="mainline_eval_5_1" nVehContrib="1" flow="60.00" occupancy="0.33" speed="25.39" length="5.00" nVehEntered="1"/>
    <interval begin="60.00" end="120.00" id="mainline_eval_5_2" nVehContrib="1" flow="60.00" occupancy="0.29" speed="28.33" length="5.00" nVehEntered="1"/>
    <interval begin="60.00" end="120.00" id="mainline_eval_6_0" nVehContrib="0" flow="0.00" occupancy="0.00" speed="-1.00" length="-1.00" nVehEntered="0"/>
    <interval begin="60.00" end="120.00" id="mainline_eval_6_1" nVehContrib="0" flow="0.00" occupancy="0.00" speed="-1.00" length="-1.00" nVehEntered="0"/>
    <interval begin="60.00" end="120.00" id="mainline_eval_6_2" nVehContrib="0" flow="0.00" occupancy="0.00" speed="-1.00" length="-1.00" nVehEntered="0"/>
    <interval begin="120.00" end="180.00" id="mainline_eval_0_0" nVehContrib="13" flow="780.00" occupancy="6.03" speed="18.04" length="5.00" nVehEntered="14"/>
    <interval begin="120.00" end="180.00" id="mainline_eval_0_1" nVehContrib="26" flow="1560.00" occupancy="13.29" speed="18.10" length="5.00" nVehEntered="26"/>
    <interval begin="120.00" end="180.00" id="mainline_eval_0_2" nVehContrib="31" flow="1860.00" occupancy="12.89" speed="20.42" length="5.00" nVehEntered="32"/>
    <interval begin="120.00" end="180.00" id="mainline_eval_1_0" nVehContrib="16" flow="960.00" occupancy="7.01" speed="19.11" length="5.00" nVehEntered="16"/>
    <interval begin="120.00" end="180.00" id="mainline_eval_1_1" nVehContrib="19" flow="1140.00" occupancy="7.83" speed="20.29" length="5.00" nVehEntered="19"/>
    <interval begin="120.00" end="180.00" id="mainline_eval_1_2" nVehContrib="28" flow="1680.00" occupancy="10.85" speed="21.58" length="5.00" nVehEntered="28"/>
    <interval begin="120.00" end="180.00" id="mainline_eval_2_0" nVehContrib="17" flow="1020.00" occupancy="7.33" speed="19.40" length="5.00" nVehEntered="17"/>
    <interval begin="120.00" end="180.00" id="mainline_eval_2_1" nVehContrib="21" flow="1260.00" occupancy="8.48" speed="20.68" length="5.00" nVehEntered="21"/>
    <interval begin="120.00" end="180.00" id="mainline_eval_2_2" nVehContrib="27" flow="1620.00" occupancy="10.33" speed="21.44" length="5.00" nVehEntered="26"/>
    <interval begin="120.00" end="180.00" id="mainline_eval_3_0" nVehContrib="3" flow="180.00" occupancy="1.87" speed="13.36" length="5.00" nVehEntered="3"/>
    <interval begin="120.00" end="180.00" id="mainline_eval_3_1" nVehContrib="20" flow="1200.00" occupancy="10.67" speed="16.60" length="5.00" nVehEntered="20"/>
    <interval begin="120.00" end="180.00" id="mainline_eval_3_2" nVehContrib="18" flow="1080.00" occupancy="7.35" speed="20.47" length="5.00" nVehEntered="18"/>
    <interval begin="120.00" end="180.00" id="mainline_eval_3_3" nVehContrib="23" flow="1380.00" occupancy="8.67" speed="22.17" length="5.00" nVehEntered="23"/>
    <interval begin="120.00" end="180.00" id="mainline_eval_4_0" nVehContrib="2" flow="120.00" occupancy="1.22" speed="13.90" length="5.00" nVehEntered="2"/>
    <interval begin="120.00" end="180.00" id="mainline_eval_4_1" nVehContrib="21" flow="1260.00" occupancy="10.07" speed="17.81" length="5.00" nVehEntered="21"/>
    <interval begin="120.00" end="180.00" id="mainline_eval_4_2" nVehContrib="18" flow="1080.00" occupancy="7.41" speed="20.32" length="5.00" nVehEntered="18"/>
    <interval begin="120.00" end="180.00" id="mainline_eval_4_3" nVehContrib="21" flow="1260.00" occupancy="7.78" speed="22.52" length="5.00" nVehEntered="21"/>
    <interval begin="120.00" end="180.00" id="mainline_eval_5_0" nVehContrib="20" flow="1200.00" occupancy="8.82" speed="19.65" length="5.00" nVehEntered="21"/>
    <interval begin="120.00" end="180.00" id="mainline_eval_5_1" nVehContrib="18" flow="1080.00" occupancy="7.42" speed="20.28" length="5.00" nVehEntered="18"/>
    <interval begin="120.00" end="180.00" id="mainline_eval_5_2" nVehContrib="20" flow="1200.00" occupancy="7.11" speed="23.50" length="5.00" nVehEntered="20"/>
    <interval begin="120.00" end="180.00" id="mainline_eval_6_0" nVehContrib="19" flow="1140.00" occupancy="8.34" speed="19.33" length="5.00" nVehEntered="19"/>
    <interval begin="120.00" end="180.00" id="mainline_eval_6_1" nVehContrib="17" flow="1020.00" occupancy="7.23" speed="20.85" length="5.00" nVehEntered="18"/>
    <interval begin="120.00" end="180.00" id="mainline_eval_6_2" nVehContrib="18" flow="1080.00" occupancy="6.30" speed="23.91" length="5.00" nVehEntered="18"/>
    <interval begin="180.00" end="240.00" id="mainline_eval_0_0" nVehContrib="15" flow="900.00" occupancy="7.14" speed="17.59" length="5.00" nVehEntered="15"/>
    <interval begin="180.00" end="240.00" id="mainline_eval_0_1" nVehContrib="28" flow="1680.00" occupancy="11.96" speed="19.58" length="5.00" nVehEntered="28"/>
    <interval begin="180.00" end="240.00" id="mainline_eval_0_2" nVehContrib="37" flow="2220.00" occupancy="14.72" speed="20.77" length="5.00" nVehEntered="36"/>
    <interval begin="180.00" end="240.00" id="mainline_eval_1_0" nVehContrib="19" flow="1140.00" occupancy="8.92" speed="17.81" length="5.00" nVehEntered="19"/>
    <interval begin="180.00" end="240.00" id="mainline_eval_1_1" nVehContrib="29" flow="1740.00" occupancy="12.75" speed="18.99" length="5.00" nVehEntered="29"/>
    <interval begin="180.00" end="240.00" id="mainline_eval_1_2" nVehContrib="39" flow="2340.00" occupancy="17.18" speed="18.98" length="5.00" nVehEntered="39"/>
    <interval begin="180.00" end="240.00" id="mainline_eval_2_0" nVehContrib="17" flow="1020.00" occupancy="7.97" speed="17.82" length="5.00" nVehEntered="17"/>
    <interval begin="180.00" end="240.00" id="mainline_eval_2_1" nVehContrib="26" flow="1560.00" occupancy="11.30" speed="19.25" length="5.00" nVehEntered="26"/>
    <interval begin="180.00" end="240.00" id="mainline_eval_2_2" nVehContrib="30" flow="1800.00" occupancy="12.02" speed="20.89" length="5.00" nVehEntered="30"/>
    <interval begin="180.00" end="240.00" id="mainline_eval_3_0" nVehContrib="4" flow="240.00" occupancy="3.11" speed="11.59" length="5.00" nVehEntered="4"/>
    <interval begin="180.00" end="240.00" id="mainline_eval_3_1" nVehContrib="21" flow="1260.00" occupancy="16.50" speed="12.60" length="5.00" nVehEntered="22"/>
    <interval begin="180.00" end="240.00" id="mainline_eval_3_2" nVehContrib="27" flow="1620.00" occupancy="15.55" speed="17.22" length="5.00" nVehEntered="27"/>
    <interval begin="180.00" end="240.00" id="mainline_eval_3_3" nVehContrib="31" flow="1860.00" occupancy="12.49" speed="20.81" length="5.00" nVehEntered="31"/>
    <interval begin="180.00" end="240.00" id="mainline_eval_4_0" nVehContrib="0" flow="0.00" occupancy="0.00" speed="-1.00" length="-1.00" nVehEntered="1"/>
    <interval begin="180.00" end="240.00" id="mainline_eval_4_1" nVehContrib="23" flow="1380.00" occupancy="14.76" speed="14.78" length="5.00" nVehEntered="24"/>
    <interval begin="180.00" end="240.00" id="mainline_eval_4_2" nVehContrib="25" flow="1500.00" occupancy="11.52" speed="18.57" length="5.00" nVehEntered="25"/>
    <interval begin="180.00" end="240.00" id="mainline_eval_4_3" nVehContrib="31" flow="1860.00" occupancy="12.52" speed="21.29" length="5.00" nVehEntered="32"/>
    <interval begin="180.00" end="240.00" id="mainline_eval_5_0" nVehContrib="20" flow="1200.00" occupancy="9.30" speed="17.61" length="5.00" nVehEntered="19"/>
    <interval begin="180.00" end="240.00" id="mainline_eval_5_1" nVehContrib="23" flow="1380.00" occupancy="9.72" speed="19.79" length="5.00" nVehEntered="23"/>
    <interval begin="180.00" end="240.00" id="mainline_eval_5_2" nVehContrib="25" flow="1500.00" occupancy="9.62" speed="21.78" length="5.00" nVehEntered="25"/>
    <interval begin="180.00" end="240.00" id="mainline_eval_6_0" nVehContrib="18" flow="1080.00" occupancy="8.21" speed="18.32" length="5.00" nVehEntered="18"/>
    <interval begin="180.00" end="240.00" id="mainline_eval_6_1" nVehContrib="22" flow="1320.00" occupancy="8.86" speed="19.85" length="5.00" nVehEntered="21"/>
    <interval begin="180.00" end="240.00" id="mainline_eval_6_2" nVehContrib="25" flow="1500.00" occupancy="9.38" speed="22.26" length="5.00" nVehEntered="25"/>
    <interval begin="240.00" end="300.00" id="mainline_eval_0_0" nVehContrib="21" flow="1260.00" occupancy="9.67" speed="18.14" length="5.00" nVehEntered="21"/>
    <interval begin="240.00" end="300.00" id="mainline_eval_0_1" nVehContrib="26" flow="1560.00" occupancy="11.20" speed="19.38" length="5.00" nVehEntered="26"/>
    <interval begin="240.00" end="300.00" id="mainline_eval_0_2" nVehContrib="27" flow="1620.00" occupancy="10.88" speed="20.71" length="5.00" nVehEntered="27"/>
    <interval begin="240.00" end="300.00" id="mainline_eval_1_0" nVehContrib="18" flow="1080.00" occupancy="9.28" speed="17.16" length="5.00" nVehEntered="19"/>
    <interval begin="240.00" end="300.00" id="mainline_eval_1_1" nVehContrib="27" flow="1620.00" occupancy="12.24" speed="18.65" length="5.00" nVehEntered="27"/>
    <interval begin="240.00" end="300.00" id="mainline_eval_1_2" nVehContrib="34" flow="2040.00" occupancy="14.20" speed="20.51" length="5.00" nVehEntered="35"/>
    <interval begin="240.00" end="300.00" id="mainline_eval_2_0" nVehContrib="18" flow="1080.00" occupancy="8.48" speed="17.74" length="5.00" nVehEntered="18"/>
    <interval begin="240.00" end="300.00" id="mainline_eval_2_1" nVehContrib="31" flow="1860.00" occupancy="13.16" speed="19.72" length="5.00" nVehEntered="31"/>
    <interval begin="240.00" end="300.00" id="mainline_eval_2_2" nVehContrib="32" flow="1920.00" occupancy="12.49" speed="21.38" length="5.00" nVehEntered="32"/>
    <interval begin="240.00" end="300.00" id="mainline_eval_3_0" nVehContrib="5" flow="300.00" occupancy="4.28" speed="10.08" length="5.00" nVehEntered="5"/>
    <interval begin="240.00" end="300.00" id="mainline_eval_3_1" nVehContrib="23" flow="1380.00" occupancy="18.47" speed="12.28" length="5.00" nVehEntered="23"/>
    <interval begin="240.00" end="300.00" id="mainline_eval_3_2" nVehContrib="32" flow="1920.00" occupancy="16.58" speed="16.52" length="5.00" nVehEntered="32"/>
    <interval begin="240.00" end="300.00" id="mainline_eval_3_3" nVehContrib="38" flow="2280.00" occupancy="16.10" speed="19.81" length="5.00" nVehEntered="38"/>
    <interval begin="240.00" end="300.00" id="mainline_eval_4_0" nVehContrib="0" flow="0.00" occupancy="0.00" speed="-1.00" length="-1.00" nVehEntered="0"/>
    <interval begin="240.00" end="300.00" id="mainline_eval_4_1" nVehContrib="27" flow="1620.00" occupancy="16.14" speed="14.17" length="5.00" nVehEntered="26"/>
    <interval begin="240.00" end="300.00" id="mainline_eval_4_2" nVehContrib="33" flow="1980.00" occupancy="16.67" speed="16.85" length="5.00" nVehEntered="33"/>
    <interval begin="240.00" end="300.00" id="mainline_eval_4_3" nVehContrib="38" flow="2280.00" occupancy="16.30" speed="19.44" length="5.00" nVehEntered="38"/>
    <interval begin="240.00" end="300.00" id="mainline_eval_5_0" nVehContrib="29" flow="1740.00" occupancy="14.37" speed="16.87" length="5.00" nVehEntered="29"/>
    <interval begin="240.00" end="300.00" id="mainline_eval_5_1" nVehContrib="34" flow="2040.00" occupancy="17.00" speed="16.77" length="5.00" nVehEntered="34"/>
    <interval begin="240.00" end="300.00" id="mainline_eval_5_2" nVehContrib="40" flow="2400.00" occupancy="17.47" speed="19.60" length="5.00" nVehEntered="41"/>
    <interval begin="240.00" end="300.00" id="mainline_eval_6_0" nVehContrib="29" flow="1740.00" occupancy="14.14" speed="17.22" length="5.00" nVehEntered="29"/>
    <interval begin="240.00" end="300.00" id="mainline_eval_6_1" nVehContrib="35" flow="2100.00" occupancy="16.40" speed="17.93" length="5.00" nVehEntered="35"/>
    <interval begin="240.00" end="300.00" id="mainline_eval_6_2" nVehContrib="41" flow="2460.00" occupancy="16.84" speed="20.41" length="5.00" nVehEntered="41"/>
</detector>
