<?xml version="1.0" encoding="UTF-8"?>

<!-- generated on 02/26/19 20:01:11 by Eclipse SUMO Version 1.0.1
<configuration xmlns:xsi="http://www.w3.org/2001/XMLSchema-instance" xsi:noNamespaceSchemaLocation="http://sumo.dlr.de/xsd/sumoConfiguration.xsd">

    <input>
        <net-file value="./project/ramp.net.xml"/>
        <route-files value="./project/ramp.rou.xml"/>
        <additional-files value="./project/ramp.add.xml"/>
    </input>

    <time>
        <begin value="0"/>
    </time>

    <report>
        <verbose value="true"/>
        <no-step-log value="true"/>
    </report>

    <traci_server>
        <remote-port value="32511"/>
    </traci_server>

    <random_number>
        <seed value="195881873"/>
    </random_number>

    <gui_only>
        <quit-on-end value="true"/>
        <start value="true"/>
    </gui_only>

</configuration>
-->

<detector xmlns:xsi="http://www.w3.org/2001/XMLSchema-instance" xsi:noNamespaceSchemaLocation="http://sumo.dlr.de/xsd/det_e1_file.xsd">
    <interval begin="0.00" end="60.00" id="mainline_eval_0_0" nVehContrib="1" flow="60.00" occupancy="0.36" speed="23.35" length="5.00" nVehEntered="1"/>
    <interval begin="0.00" end="60.00" id="mainline_eval_0_1" nVehContrib="0" flow="0.00" occupancy="0.00" speed="-1.00" length="-1.00" nVehEntered="0"/>
    <interval begin="0.00" end="60.00" id="mainline_eval_0_2" nVehContrib="0" flow="0.00" occupancy="0.00" speed="-1.00" length="-1.00" nVehEntered="0"/>
    <interval begin="0.00" end="60.00" id="mainline_eval_1_0" nVehContrib="0" flow="0.00" occupancy="0.00" speed="-1.00" length="-1.00" nVehEntered="0"/>
    <interval begin="0.00" end="60.00" id="mainline_eval_1_1" nVehContrib="0" flow="0.00" occupancy="0.00" speed="-1.00" length="-1.00" nVehEntered="0"/>
    <interval begin="0.00" end="60.00" id="mainline_eval_1_2" nVehContrib="0" flow="0.00" occupancy="0.00" speed="-1.00" length="-1.00" nVehEntered="0"/>
    <interval begin="0.00" end="60.00" id="mainline_eval_2_0" nVehContrib="0" flow="0.00" occupancy="0.00" speed="-1.00" length="-1.00" nVehEntered="0"/>
    <interval begin="0.00" end="60.00" id="mainline_eval_2_1" nVehContrib="0" flow="0.00" occupancy="0.00" speed="-1.00" length="-1.00" nVehEntered="0"/>
    <interval begin="0.00" end="60.00" id="mainline_eval_2_2" nVehContrib="0" flow="0.00" occupancy="0.00" speed="-1.00" length="-1.00" nVehEntered="0"/>
    <interval begin="0.00" end="60.00" id="mainline_eval_3_0" nVehContrib="0" flow="0.00" occupancy="0.00" speed="-1.00" length="-1.00" nVehEntered="0"/>
    <interval begin="0.00" end="60.00" id="mainline_eval_3_1" nVehContrib="0" flow="0.00" occupancy="0.00" speed="-1.00" length="-1.00" nVehEntered="0"/>
    <interval begin="0.00" end="60.00" id="mainline_eval_3_2" nVehContrib="0" flow="0.00" occupancy="0.00" speed="-1.00" length="-1.00" nVehEntered="0"/>
    <interval begin="0.00" end="60.00" id="mainline_eval_3_3" nVehContrib="0" flow="0.00" occupancy="0.00" speed="-1.00" length="-1.00" nVehEntered="0"/>
    <interval begin="0.00" end="60.00" id="mainline_eval_4_0" nVehContrib="0" flow="0.00" occupancy="0.00" speed="-1.00" length="-1.00" nVehEntered="0"/>
    <interval begin="0.00" end="60.00" id="mainline_eval_4_1" nVehContrib="0" flow="0.00" occupancy="0.00" speed="-1.00" length="-1.00" nVehEntered="0"/>
    <interval begin="0.00" end="60.00" id="mainline_eval_4_2" nVehContrib="0" flow="0.00" occupancy="0.00" speed="-1.00" length="-1.00" nVehEntered="0"/>
    <interval begin="0.00" end="60.00" id="mainline_eval_4_3" nVehContrib="0" flow="0.00" occupancy="0.00" speed="-1.00" length="-1.00" nVehEntered="0"/>
    <interval begin="0.00" end="60.00" id="mainline_eval_5_0" nVehContrib="0" flow="0.00" occupancy="0.00" speed="-1.00" length="-1.00" nVehEntered="0"/>
    <interval begin="0.00" end="60.00" id="mainline_eval_5_1" nVehContrib="0" flow="0.00" occupancy="0.00" speed="-1.00" length="-1.00" nVehEntered="0"/>
    <interval begin="0.00" end="60.00" id="mainline_eval_5_2" nVehContrib="0" flow="0.00" occupancy="0.00" speed="-1.00" length="-1.00" nVehEntered="0"/>
    <interval begin="0.00" end="60.00" id="mainline_eval_6_0" nVehContrib="0" flow="0.00" occupancy="0.00" speed="-1.00" length="-1.00" nVehEntered="0"/>
    <interval begin="0.00" end="60.00" id="mainline_eval_6_1" nVehContrib="0" flow="0.00" occupancy="0.00" speed="-1.00" length="-1.00" nVehEntered="0"/>
    <interval begin="0.00" end="60.00" id="mainline_eval_6_2" nVehContrib="0" flow="0.00" occupancy="0.00" speed="-1.00" length="-1.00" nVehEntered="0"/>
    <interval begin="60.00" end="120.00" id="mainline_eval_0_0" nVehContrib="13" flow="780.00" occupancy="5.45" speed="20.07" length="5.00" nVehEntered="13"/>
    <interval begin="60.00" end="120.00" id="mainline_eval_0_1" nVehContrib="16" flow="960.00" occupancy="6.58" speed="20.41" length="5.00" nVehEntered="16"/>
    <interval begin="60.00" end="120.00" id="mainline_eval_0_2" nVehContrib="21" flow="1260.00" occupancy="7.91" speed="22.15" length="5.00" nVehEntered="21"/>
    <interval begin="60.00" end="120.00" id="mainline_eval_1_0" nVehContrib="10" flow="600.00" occupancy="4.05" speed="20.72" length="5.00" nVehEntered="10"/>
    <interval begin="60.00" end="120.00" id="mainline_eval_1_1" nVehContrib="9" flow="540.00" occupancy="4.02" speed="20.96" length="5.00" nVehEntered="10"/>
    <interval begin="60.00" end="120.00" id="mainline_eval_1_2" nVehContrib="10" flow="600.00" occupancy="3.73" speed="22.38" length="5.00" nVehEntered="10"/>
    <interval begin="60.00" end="120.00" id="mainline_eval_2_0" nVehContrib="4" flow="240.00" occupancy="1.50" speed="22.33" length="5.00" nVehEntered="4"/>
    <interval begin="60.00" end="120.00" id="mainline_eval_2_1" nVehContrib="5" flow="300.00" occupancy="1.83" speed="22.84" length="5.00" nVehEntered="5"/>
    <interval begin="60.00" end="120.00" id="mainline_eval_2_2" nVehContrib="1" flow="60.00" occupancy="0.36" speed="22.95" length="5.00" nVehEntered="1"/>
    <interval begin="60.00" end="120.00" id="mainline_eval_3_0" nVehContrib="0" flow="0.00" occupancy="0.00" speed="-1.00" length="-1.00" nVehEntered="0"/>
    <interval begin="60.00" end="120.00" id="mainline_eval_3_1" nVehContrib="3" flow="180.00" occupancy="1.14" speed="21.93" length="5.00" nVehEntered="3"/>
    <interval begin="60.00" end="120.00" id="mainline_eval_3_2" nVehContrib="2" flow="120.00" occupancy="0.70" speed="23.69" length="5.00" nVehEntered="2"/>
    <interval begin="60.00" end="120.00" id="mainline_eval_3_3" nVehContrib="0" flow="0.00" occupancy="0.00" speed="-1.00" length="-1.00" nVehEntered="0"/>
    <interval begin="60.00" end="120.00" id="mainline_eval_4_0" nVehContrib="0" flow="0.00" occupancy="0.00" speed="-1.00" length="-1.00" nVehEntered="0"/>
    <interval begin="60.00" end="120.00" id="mainline_eval_4_1" nVehContrib="3" flow="180.00" occupancy="1.13" speed="22.13" length="5.00" nVehEntered="3"/>
    <interval begin="60.00" end="120.00" id="mainline_eval_4_2" nVehContrib="1" flow="60.00" occupancy="0.35" speed="23.79" length="5.00" nVehEntered="1"/>
    <interval begin="60.00" end="120.00" id="mainline_eval_4_3" nVehContrib="0" flow="0.00" occupancy="0.00" speed="-1.00" length="-1.00" nVehEntered="0"/>
    <interval begin="60.00" end="120.00" id="mainline_eval_5_0" nVehContrib="1" flow="60.00" occupancy="0.41" speed="23.25" length="5.00" nVehEntered="2"/>
    <interval begin="60.00" end="120.00" id="mainline_eval_5_1" nVehContrib="0" flow="0.00" occupancy="0.00" speed="-1.00" length="-1.00" nVehEntered="0"/>
    <interval begin="60.00" end="120.00" id="mainline_eval_5_2" nVehContrib="0" flow="0.00" occupancy="0.00" speed="-1.00" length="-1.00" nVehEntered="0"/>
    <interval begin="60.00" end="120.00" id="mainline_eval_6_0" nVehContrib="1" flow="60.00" occupancy="0.36" speed="23.45" length="5.00" nVehEntered="1"/>
    <interval begin="60.00" end="120.00" id="mainline_eval_6_1" nVehContrib="0" flow="0.00" occupancy="0.00" speed="-1.00" length="-1.00" nVehEntered="0"/>
    <interval begin="60.00" end="120.00" id="mainline_eval_6_2" nVehContrib="0" flow="0.00" occupancy="0.00" speed="-1.00" length="-1.00" nVehEntered="0"/>
    <interval begin="120.00" end="180.00" id="mainline_eval_0_0" nVehContrib="15" flow="900.00" occupancy="7.65" speed="17.42" length="5.00" nVehEntered="16"/>
    <interval begin="120.00" end="180.00" id="mainline_eval_0_1" nVehContrib="27" flow="1620.00" occupancy="11.79" speed="19.21" length="5.00" nVehEntered="27"/>
    <interval begin="120.00" end="180.00" id="mainline_eval_0_2" nVehContrib="31" flow="1860.00" occupancy="11.89" speed="21.80" length="5.00" nVehEntered="31"/>
    <interval begin="120.00" end="180.00" id="mainline_eval_1_0" nVehContrib="13" flow="780.00" occupancy="5.85" speed="18.63" length="5.00" nVehEntered="13"/>
    <interval begin="120.00" end="180.00" id="mainline_eval_1_1" nVehContrib="23" flow="1380.00" occupancy="9.06" speed="20.30" length="5.00" nVehEntered="22"/>
    <interval begin="120.00" end="180.00" id="mainline_eval_1_2" nVehContrib="30" flow="1800.00" occupancy="11.30" speed="22.14" length="5.00" nVehEntered="30"/>
    <interval begin="120.00" end="180.00" id="mainline_eval_2_0" nVehContrib="16" flow="960.00" occupancy="7.06" speed="18.96" length="5.00" nVehEntered="16"/>
    <interval begin="120.00" end="180.00" id="mainline_eval_2_1" nVehContrib="18" flow="1080.00" occupancy="7.34" speed="20.55" length="5.00" nVehEntered="18"/>
    <interval begin="120.00" end="180.00" id="mainline_eval_2_2" nVehContrib="31" flow="1860.00" occupancy="11.63" speed="22.27" length="5.00" nVehEntered="31"/>
    <interval begin="120.00" end="180.00" id="mainline_eval_3_0" nVehContrib="5" flow="300.00" occupancy="4.27" speed="10.91" length="5.00" nVehEntered="6"/>
    <interval begin="120.00" end="180.00" id="mainline_eval_3_1" nVehContrib="19" flow="1140.00" occupancy="12.95" speed="14.48" length="5.00" nVehEntered="19"/>
    <interval begin="120.00" end="180.00" id="mainline_eval_3_2" nVehContrib="23" flow="1380.00" occupancy="9.94" speed="19.63" length="5.00" nVehEntered="23"/>
    <interval begin="120.00" end="180.00" id="mainline_eval_3_3" nVehContrib="28" flow="1680.00" occupancy="10.33" speed="22.61" length="5.00" nVehEntered="28"/>
    <interval begin="120.00" end="180.00" id="mainline_eval_4_0" nVehContrib="0" flow="0.00" occupancy="0.00" speed="-1.00" length="-1.00" nVehEntered="0"/>
    <interval begin="120.00" end="180.00" id="mainline_eval_4_1" nVehContrib="23" flow="1380.00" occupancy="12.74" speed="15.90" length="5.00" nVehEntered="23"/>
    <interval begin="120.00" end="180.00" id="mainline_eval_4_2" nVehContrib="22" flow="1320.00" occupancy="9.49" speed="19.66" length="5.00" nVehEntered="23"/>
    <interval begin="120.00" end="180.00" id="mainline_eval_4_3" nVehContrib="27" flow="1620.00" occupancy="9.97" speed="22.59" length="5.00" nVehEntered="27"/>
    <interval begin="120.00" end="180.00" id="mainline_eval_5_0" nVehContrib="21" flow="1260.00" occupancy="8.82" speed="19.87" length="5.00" nVehEntered="20"/>
    <interval begin="120.00" end="180.00" id="mainline_eval_5_1" nVehContrib="16" flow="960.00" occupancy="6.51" speed="20.98" length="5.00" nVehEntered="17"/>
    <interval begin="120.00" end="180.00" id="mainline_eval_5_2" nVehContrib="20" flow="1200.00" occupancy="7.65" speed="22.44" length="5.00" nVehEntered="21"/>
    <interval begin="120.00" end="180.00" id="mainline_eval_6_0" nVehContrib="18" flow="1080.00" occupancy="7.57" speed="19.97" length="5.00" nVehEntered="18"/>
    <interval begin="120.00" end="180.00" id="mainline_eval_6_1" nVehContrib="14" flow="840.00" occupancy="5.49" speed="21.38" length="5.00" nVehEntered="14"/>
    <interval begin="120.00" end="180.00" id="mainline_eval_6_2" nVehContrib="18" flow="1080.00" occupancy="6.64" speed="22.65" length="5.00" nVehEntered="18"/>
    <interval begin="180.00" end="240.00" id="mainline_eval_0_0" nVehContrib="21" flow="1260.00" occupancy="9.51" speed="17.85" length="5.00" nVehEntered="20"/>
    <interval begin="180.00" end="240.00" id="mainline_eval_0_1" nVehContrib="24" flow="1440.00" occupancy="10.39" speed="19.32" length="5.00" nVehEntered="24"/>
    <interval begin="180.00" end="240.00" id="mainline_eval_0_2" nVehContrib="31" flow="1860.00" occupancy="12.57" speed="20.59" length="5.00" nVehEntered="31"/>
    <interval begin="180.00" end="240.00" id="mainline_eval_1_0" nVehContrib="18" flow="1080.00" occupancy="8.32" speed="18.15" length="5.00" nVehEntered="18"/>
    <interval begin="180.00" end="240.00" id="mainline_eval_1_1" nVehContrib="31" flow="1860.00" occupancy="13.45" speed="19.27" length="5.00" nVehEntered="31"/>
    <interval begin="180.00" end="240.00" id="mainline_eval_1_2" nVehContrib="38" flow="2280.00" occupancy="15.50" speed="20.80" length="5.00" nVehEntered="39"/>
    <interval begin="180.00" end="240.00" id="mainline_eval_2_0" nVehContrib="16" flow="960.00" occupancy="7.42" speed="18.12" length="5.00" nVehEntered="16"/>
    <interval begin="180.00" end="240.00" id="mainline_eval_2_1" nVehContrib="25" flow="1500.00" occupancy="10.56" speed="19.84" length="5.00" nVehEntered="25"/>
    <interval begin="180.00" end="240.00" id="mainline_eval_2_2" nVehContrib="33" flow="1980.00" occupancy="12.87" speed="21.45" length="5.00" nVehEntered="33"/>
    <interval begin="180.00" end="240.00" id="mainline_eval_3_0" nVehContrib="2" flow="120.00" occupancy="1.30" speed="12.88" length="5.00" nVehEntered="3"/>
    <interval begin="180.00" end="240.00" id="mainline_eval_3_1" nVehContrib="25" flow="1500.00" occupancy="15.79" speed="14.50" length="5.00" nVehEntered="25"/>
    <interval begin="180.00" end="240.00" id="mainline_eval_3_2" nVehContrib="24" flow="1440.00" occupancy="9.92" speed="20.24" length="5.00" nVehEntered="24"/>
    <interval begin="180.00" end="240.00" id="mainline_eval_3_3" nVehContrib="30" flow="1800.00" occupancy="11.93" speed="21.54" length="5.00" nVehEntered="31"/>
    <interval begin="180.00" end="240.00" id="mainline_eval_4_0" nVehContrib="1" flow="60.00" occupancy="0.71" speed="11.75" length="5.00" nVehEntered="1"/>
    <interval begin="180.00" end="240.00" id="mainline_eval_4_1" nVehContrib="25" flow="1500.00" occupancy="12.47" speed="16.79" length="5.00" nVehEntered="25"/>
    <interval begin="180.00" end="240.00" id="mainline_eval_4_2" nVehContrib="25" flow="1500.00" occupancy="10.27" speed="20.24" length="5.00" nVehEntered="24"/>
    <interval begin="180.00" end="240.00" id="mainline_eval_4_3" nVehContrib="30" flow="1800.00" occupancy="11.68" speed="21.56" length="5.00" nVehEntered="30"/>
    <interval begin="180.00" end="240.00" id="mainline_eval_5_0" nVehContrib="22" flow="1320.00" occupancy="10.10" speed="18.25" length="5.00" nVehEntered="22"/>
    <interval begin="180.00" end="240.00" id="mainline_eval_5_1" nVehContrib="26" flow="1560.00" occupancy="10.67" speed="20.17" length="5.00" nVehEntered="25"/>
    <interval begin="180.00" end="240.00" id="mainline_eval_5_2" nVehContrib="31" flow="1860.00" occupancy="11.49" speed="22.14" length="5.00" nVehEntered="30"/>
    <interval begin="180.00" end="240.00" id="mainline_eval_6_0" nVehContrib="22" flow="1320.00" occupancy="10.14" speed="18.11" length="5.00" nVehEntered="22"/>
    <interval begin="180.00" end="240.00" id="mainline_eval_6_1" nVehContrib="26" flow="1560.00" occupancy="10.93" speed="19.91" length="5.00" nVehEntered="26"/>
    <interval begin="180.00" end="240.00" id="mainline_eval_6_2" nVehContrib="30" flow="1800.00" occupancy="11.35" speed="22.06" length="5.00" nVehEntered="30"/>
    <interval begin="240.00" end="300.00" id="mainline_eval_0_0" nVehContrib="20" flow="1200.00" occupancy="8.95" speed="18.68" length="5.00" nVehEntered="20"/>
    <interval begin="240.00" end="300.00" id="mainline_eval_0_1" nVehContrib="24" flow="1440.00" occupancy="10.08" speed="19.91" length="5.00" nVehEntered="24"/>
    <interval begin="240.00" end="300.00" id="mainline_eval_0_2" nVehContrib="40" flow="2400.00" occupancy="15.58" speed="21.41" length="5.00" nVehEntered="40"/>
    <interval begin="240.00" end="300.00" id="mainline_eval_1_0" nVehContrib="20" flow="1200.00" occupancy="9.24" speed="18.10" length="5.00" nVehEntered="20"/>
    <interval begin="240.00" end="300.00" id="mainline_eval_1_1" nVehContrib="23" flow="1380.00" occupancy="9.66" speed="19.93" length="5.00" nVehEntered="23"/>
    <interval begin="240.00" end="300.00" id="mainline_eval_1_2" nVehContrib="35" flow="2100.00" occupancy="13.48" speed="21.36" length="5.00" nVehEntered="35"/>
    <interval begin="240.00" end="300.00" id="mainline_eval_2_0" nVehContrib="16" flow="960.00" occupancy="7.50" speed="17.81" length="5.00" nVehEntered="16"/>
    <interval begin="240.00" end="300.00" id="mainline_eval_2_1" nVehContrib="27" flow="1620.00" occupancy="12.90" speed="17.98" length="5.00" nVehEntered="28"/>
    <interval begin="240.00" end="300.00" id="mainline_eval_2_2" nVehContrib="35" flow="2100.00" occupancy="14.07" speed="20.77" length="5.00" nVehEntered="35"/>
    <interval begin="240.00" end="300.00" id="mainline_eval_3_0" nVehContrib="7" flow="420.00" occupancy="5.24" speed="11.39" length="5.00" nVehEntered="8"/>
    <interval begin="240.00" end="300.00" id="mainline_eval_3_1" nVehContrib="24" flow="1440.00" occupancy="21.29" speed="10.55" length="5.00" nVehEntered="24"/>
    <interval begin="240.00" end="300.00" id="mainline_eval_3_2" nVehContrib="30" flow="1800.00" occupancy="16.88" speed="15.54" length="5.00" nVehEntered="30"/>
    <interval begin="240.00" end="300.00" id="mainline_eval_3_3" nVehContrib="36" flow="2160.00" occupancy="14.56" speed="20.34" length="5.00" nVehEntered="35"/>
    <interval begin="240.00" end="300.00" id="mainline_eval_4_0" nVehContrib="3" flow="180.00" occupancy="2.14" speed="12.16" length="5.00" nVehEntered="3"/>
    <interval begin="240.00" end="300.00" id="mainline_eval_4_1" nVehContrib="28" flow="1680.00" occupancy="24.07" speed="12.24" length="5.00" nVehEntered="28"/>
    <interval begin="240.00" end="300.00" id="mainline_eval_4_2" nVehContrib="31" flow="1860.00" occupancy="15.98" speed="16.64" length="5.00" nVehEntered="31"/>
    <interval begin="240.00" end="300.00" id="mainline_eval_4_3" nVehContrib="35" flow="2100.00" occupancy="14.63" speed="20.02" length="5.00" nVehEntered="35"/>
    <interval begin="240.00" end="300.00" id="mainline_eval_5_0" nVehContrib="29" flow="1740.00" occupancy="13.85" speed="17.58" length="5.00" nVehEntered="29"/>
    <interval begin="240.00" end="300.00" id="mainline_eval_5_1" nVehContrib="34" flow="2040.00" occupancy="16.18" speed="17.73" length="5.00" nVehEntered="34"/>
    <interval begin="240.00" end="300.00" id="mainline_eval_5_2" nVehContrib="39" flow="2340.00" occupancy="16.51" speed="19.77" length="5.00" nVehEntered="39"/>
    <interval begin="240.00" end="300.00" id="mainline_eval_6_0" nVehContrib="29" flow="1740.00" occupancy="14.04" speed="17.35" length="5.00" nVehEntered="30"/>
    <interval begin="240.00" end="300.00" id="mainline_eval_6_1" nVehContrib="33" flow="1980.00" occupancy="15.87" speed="17.57" length="5.00" nVehEntered="33"/>
    <interval begin="240.00" end="300.00" id="mainline_eval_6_2" nVehContrib="39" flow="2340.00" occupancy="17.01" speed="19.32" length="5.00" nVehEntered="40"/>
</detector>
