<?xml version="1.0" encoding="UTF-8"?>

<!-- generated on 02/22/19 17:27:32 by Eclipse SUMO Version 1.0.1
<configuration xmlns:xsi="http://www.w3.org/2001/XMLSchema-instance" xsi:noNamespaceSchemaLocation="http://sumo.dlr.de/xsd/sumoConfiguration.xsd">

    <input>
        <net-file value="./project/ramp.net.xml"/>
        <route-files value="./project/ramp.rou.xml"/>
        <additional-files value="./project/ramp.add.xml"/>
    </input>

    <time>
        <begin value="0"/>
    </time>

    <report>
        <verbose value="true"/>
        <no-step-log value="true"/>
    </report>

    <traci_server>
        <remote-port value="60298"/>
    </traci_server>

    <random_number>
        <seed value="992901726"/>
    </random_number>

    <gui_only>
        <quit-on-end value="true"/>
        <start value="true"/>
    </gui_only>

</configuration>
-->

<detector xmlns:xsi="http://www.w3.org/2001/XMLSchema-instance" xsi:noNamespaceSchemaLocation="http://sumo.dlr.de/xsd/det_e1_file.xsd">
    <interval begin="0.00" end="60.00" id="mainline_eval_0_0" nVehContrib="1" flow="60.00" occupancy="0.37" speed="22.62" length="5.00" nVehEntered="1"/>
    <interval begin="0.00" end="60.00" id="mainline_eval_0_1" nVehContrib="1" flow="60.00" occupancy="0.37" speed="22.80" length="5.00" nVehEntered="1"/>
    <interval begin="0.00" end="60.00" id="mainline_eval_0_2" nVehContrib="1" flow="60.00" occupancy="0.30" speed="27.73" length="5.00" nVehEntered="1"/>
    <interval begin="0.00" end="60.00" id="mainline_eval_1_0" nVehContrib="0" flow="0.00" occupancy="0.00" speed="-1.00" length="-1.00" nVehEntered="0"/>
    <interval begin="0.00" end="60.00" id="mainline_eval_1_1" nVehContrib="0" flow="0.00" occupancy="0.00" speed="-1.00" length="-1.00" nVehEntered="0"/>
    <interval begin="0.00" end="60.00" id="mainline_eval_1_2" nVehContrib="0" flow="0.00" occupancy="0.00" speed="-1.00" length="-1.00" nVehEntered="0"/>
    <interval begin="0.00" end="60.00" id="mainline_eval_2_0" nVehContrib="0" flow="0.00" occupancy="0.00" speed="-1.00" length="-1.00" nVehEntered="0"/>
    <interval begin="0.00" end="60.00" id="mainline_eval_2_1" nVehContrib="0" flow="0.00" occupancy="0.00" speed="-1.00" length="-1.00" nVehEntered="0"/>
    <interval begin="0.00" end="60.00" id="mainline_eval_2_2" nVehContrib="0" flow="0.00" occupancy="0.00" speed="-1.00" length="-1.00" nVehEntered="0"/>
    <interval begin="0.00" end="60.00" id="mainline_eval_3_0" nVehContrib="0" flow="0.00" occupancy="0.00" speed="-1.00" length="-1.00" nVehEntered="0"/>
    <interval begin="0.00" end="60.00" id="mainline_eval_3_1" nVehContrib="0" flow="0.00" occupancy="0.00" speed="-1.00" length="-1.00" nVehEntered="0"/>
    <interval begin="0.00" end="60.00" id="mainline_eval_3_2" nVehContrib="0" flow="0.00" occupancy="0.00" speed="-1.00" length="-1.00" nVehEntered="0"/>
    <interval begin="0.00" end="60.00" id="mainline_eval_3_3" nVehContrib="0" flow="0.00" occupancy="0.00" speed="-1.00" length="-1.00" nVehEntered="0"/>
    <interval begin="0.00" end="60.00" id="mainline_eval_4_0" nVehContrib="0" flow="0.00" occupancy="0.00" speed="-1.00" length="-1.00" nVehEntered="0"/>
    <interval begin="0.00" end="60.00" id="mainline_eval_4_1" nVehContrib="0" flow="0.00" occupancy="0.00" speed="-1.00" length="-1.00" nVehEntered="0"/>
    <interval begin="0.00" end="60.00" id="mainline_eval_4_2" nVehContrib="0" flow="0.00" occupancy="0.00" speed="-1.00" length="-1.00" nVehEntered="0"/>
    <interval begin="0.00" end="60.00" id="mainline_eval_4_3" nVehContrib="0" flow="0.00" occupancy="0.00" speed="-1.00" length="-1.00" nVehEntered="0"/>
    <interval begin="0.00" end="60.00" id="mainline_eval_5_0" nVehContrib="0" flow="0.00" occupancy="0.00" speed="-1.00" length="-1.00" nVehEntered="0"/>
    <interval begin="0.00" end="60.00" id="mainline_eval_5_1" nVehContrib="0" flow="0.00" occupancy="0.00" speed="-1.00" length="-1.00" nVehEntered="0"/>
    <interval begin="0.00" end="60.00" id="mainline_eval_5_2" nVehContrib="0" flow="0.00" occupancy="0.00" speed="-1.00" length="-1.00" nVehEntered="0"/>
    <interval begin="0.00" end="60.00" id="mainline_eval_6_0" nVehContrib="0" flow="0.00" occupancy="0.00" speed="-1.00" length="-1.00" nVehEntered="0"/>
    <interval begin="0.00" end="60.00" id="mainline_eval_6_1" nVehContrib="0" flow="0.00" occupancy="0.00" speed="-1.00" length="-1.00" nVehEntered="0"/>
    <interval begin="0.00" end="60.00" id="mainline_eval_6_2" nVehContrib="0" flow="0.00" occupancy="0.00" speed="-1.00" length="-1.00" nVehEntered="0"/>
    <interval begin="60.00" end="120.00" id="mainline_eval_0_0" nVehContrib="16" flow="960.00" occupancy="6.75" speed="19.77" length="5.00" nVehEntered="16"/>
    <interval begin="60.00" end="120.00" id="mainline_eval_0_1" nVehContrib="15" flow="900.00" occupancy="6.00" speed="20.86" length="5.00" nVehEntered="15"/>
    <interval begin="60.00" end="120.00" id="mainline_eval_0_2" nVehContrib="18" flow="1080.00" occupancy="6.88" speed="21.85" length="5.00" nVehEntered="18"/>
    <interval begin="60.00" end="120.00" id="mainline_eval_1_0" nVehContrib="10" flow="600.00" occupancy="4.22" speed="20.30" length="5.00" nVehEntered="11"/>
    <interval begin="60.00" end="120.00" id="mainline_eval_1_1" nVehContrib="9" flow="540.00" occupancy="3.61" speed="20.84" length="5.00" nVehEntered="9"/>
    <interval begin="60.00" end="120.00" id="mainline_eval_1_2" nVehContrib="8" flow="480.00" occupancy="2.95" speed="22.85" length="5.00" nVehEntered="8"/>
    <interval begin="60.00" end="120.00" id="mainline_eval_2_0" nVehContrib="7" flow="420.00" occupancy="2.73" speed="21.41" length="5.00" nVehEntered="7"/>
    <interval begin="60.00" end="120.00" id="mainline_eval_2_1" nVehContrib="4" flow="240.00" occupancy="1.35" speed="24.87" length="5.00" nVehEntered="4"/>
    <interval begin="60.00" end="120.00" id="mainline_eval_2_2" nVehContrib="0" flow="0.00" occupancy="0.00" speed="-1.00" length="-1.00" nVehEntered="0"/>
    <interval begin="60.00" end="120.00" id="mainline_eval_3_0" nVehContrib="0" flow="0.00" occupancy="0.00" speed="-1.00" length="-1.00" nVehEntered="0"/>
    <interval begin="60.00" end="120.00" id="mainline_eval_3_1" nVehContrib="3" flow="180.00" occupancy="1.11" speed="22.60" length="5.00" nVehEntered="3"/>
    <interval begin="60.00" end="120.00" id="mainline_eval_3_2" nVehContrib="2" flow="120.00" occupancy="0.67" speed="25.27" length="5.00" nVehEntered="2"/>
    <interval begin="60.00" end="120.00" id="mainline_eval_3_3" nVehContrib="0" flow="0.00" occupancy="0.00" speed="-1.00" length="-1.00" nVehEntered="0"/>
    <interval begin="60.00" end="120.00" id="mainline_eval_4_0" nVehContrib="0" flow="0.00" occupancy="0.00" speed="-1.00" length="-1.00" nVehEntered="0"/>
    <interval begin="60.00" end="120.00" id="mainline_eval_4_1" nVehContrib="2" flow="120.00" occupancy="0.73" speed="22.92" length="5.00" nVehEntered="2"/>
    <interval begin="60.00" end="120.00" id="mainline_eval_4_2" nVehContrib="2" flow="120.00" occupancy="0.67" speed="25.27" length="5.00" nVehEntered="2"/>
    <interval begin="60.00" end="120.00" id="mainline_eval_4_3" nVehContrib="0" flow="0.00" occupancy="0.00" speed="-1.00" length="-1.00" nVehEntered="0"/>
    <interval begin="60.00" end="120.00" id="mainline_eval_5_0" nVehContrib="1" flow="60.00" occupancy="0.36" speed="23.00" length="5.00" nVehEntered="1"/>
    <interval begin="60.00" end="120.00" id="mainline_eval_5_1" nVehContrib="2" flow="120.00" occupancy="0.66" speed="25.63" length="5.00" nVehEntered="2"/>
    <interval begin="60.00" end="120.00" id="mainline_eval_5_2" nVehContrib="0" flow="0.00" occupancy="0.00" speed="-1.00" length="-1.00" nVehEntered="0"/>
    <interval begin="60.00" end="120.00" id="mainline_eval_6_0" nVehContrib="1" flow="60.00" occupancy="0.37" speed="22.80" length="5.00" nVehEntered="1"/>
    <interval begin="60.00" end="120.00" id="mainline_eval_6_1" nVehContrib="2" flow="120.00" occupancy="0.66" speed="25.39" length="5.00" nVehEntered="2"/>
    <interval begin="60.00" end="120.00" id="mainline_eval_6_2" nVehContrib="0" flow="0.00" occupancy="0.00" speed="-1.00" length="-1.00" nVehEntered="0"/>
    <interval begin="120.00" end="180.00" id="mainline_eval_0_0" nVehContrib="15" flow="900.00" occupancy="6.89" speed="18.26" length="5.00" nVehEntered="15"/>
    <interval begin="120.00" end="180.00" id="mainline_eval_0_1" nVehContrib="26" flow="1560.00" occupancy="11.35" speed="19.18" length="5.00" nVehEntered="26"/>
    <interval begin="120.00" end="180.00" id="mainline_eval_0_2" nVehContrib="35" flow="2100.00" occupancy="13.98" speed="20.88" length="5.00" nVehEntered="35"/>
    <interval begin="120.00" end="180.00" id="mainline_eval_1_0" nVehContrib="15" flow="900.00" occupancy="6.81" speed="19.02" length="5.00" nVehEntered="15"/>
    <interval begin="120.00" end="180.00" id="mainline_eval_1_1" nVehContrib="24" flow="1440.00" occupancy="9.97" speed="20.14" length="5.00" nVehEntered="24"/>
    <interval begin="120.00" end="180.00" id="mainline_eval_1_2" nVehContrib="33" flow="1980.00" occupancy="12.84" speed="21.45" length="5.00" nVehEntered="33"/>
    <interval begin="120.00" end="180.00" id="mainline_eval_2_0" nVehContrib="16" flow="960.00" occupancy="7.01" speed="19.10" length="5.00" nVehEntered="17"/>
    <interval begin="120.00" end="180.00" id="mainline_eval_2_1" nVehContrib="25" flow="1500.00" occupancy="11.48" speed="20.04" length="5.00" nVehEntered="25"/>
    <interval begin="120.00" end="180.00" id="mainline_eval_2_2" nVehContrib="27" flow="1620.00" occupancy="10.27" speed="21.94" length="5.00" nVehEntered="27"/>
    <interval begin="120.00" end="180.00" id="mainline_eval_3_0" nVehContrib="2" flow="120.00" occupancy="1.25" speed="13.37" length="5.00" nVehEntered="2"/>
    <interval begin="120.00" end="180.00" id="mainline_eval_3_1" nVehContrib="23" flow="1380.00" occupancy="11.78" speed="17.18" length="5.00" nVehEntered="23"/>
    <interval begin="120.00" end="180.00" id="mainline_eval_3_2" nVehContrib="23" flow="1380.00" occupancy="9.16" speed="21.06" length="5.00" nVehEntered="23"/>
    <interval begin="120.00" end="180.00" id="mainline_eval_3_3" nVehContrib="21" flow="1260.00" occupancy="7.99" speed="21.95" length="5.00" nVehEntered="21"/>
    <interval begin="120.00" end="180.00" id="mainline_eval_4_0" nVehContrib="0" flow="0.00" occupancy="0.00" speed="-1.00" length="-1.00" nVehEntered="0"/>
    <interval begin="120.00" end="180.00" id="mainline_eval_4_1" nVehContrib="23" flow="1380.00" occupancy="10.63" speed="18.72" length="5.00" nVehEntered="24"/>
    <interval begin="120.00" end="180.00" id="mainline_eval_4_2" nVehContrib="21" flow="1260.00" occupancy="8.38" speed="21.00" length="5.00" nVehEntered="21"/>
    <interval begin="120.00" end="180.00" id="mainline_eval_4_3" nVehContrib="21" flow="1260.00" occupancy="7.96" speed="22.02" length="5.00" nVehEntered="21"/>
    <interval begin="120.00" end="180.00" id="mainline_eval_5_0" nVehContrib="18" flow="1080.00" occupancy="7.58" speed="19.84" length="5.00" nVehEntered="18"/>
    <interval begin="120.00" end="180.00" id="mainline_eval_5_1" nVehContrib="15" flow="900.00" occupancy="5.91" speed="21.26" length="5.00" nVehEntered="15"/>
    <interval begin="120.00" end="180.00" id="mainline_eval_5_2" nVehContrib="18" flow="1080.00" occupancy="7.03" speed="21.43" length="5.00" nVehEntered="18"/>
    <interval begin="120.00" end="180.00" id="mainline_eval_6_0" nVehContrib="17" flow="1020.00" occupancy="7.07" speed="20.11" length="5.00" nVehEntered="17"/>
    <interval begin="120.00" end="180.00" id="mainline_eval_6_1" nVehContrib="12" flow="720.00" occupancy="4.63" speed="21.73" length="5.00" nVehEntered="12"/>
    <interval begin="120.00" end="180.00" id="mainline_eval_6_2" nVehContrib="15" flow="900.00" occupancy="5.63" speed="22.27" length="5.00" nVehEntered="15"/>
    <interval begin="180.00" end="240.00" id="mainline_eval_0_0" nVehContrib="19" flow="1140.00" occupancy="8.50" speed="18.69" length="5.00" nVehEntered="19"/>
    <interval begin="180.00" end="240.00" id="mainline_eval_0_1" nVehContrib="26" flow="1560.00" occupancy="11.05" speed="19.63" length="5.00" nVehEntered="26"/>
    <interval begin="180.00" end="240.00" id="mainline_eval_0_2" nVehContrib="32" flow="1920.00" occupancy="13.20" speed="20.23" length="5.00" nVehEntered="32"/>
    <interval begin="180.00" end="240.00" id="mainline_eval_1_0" nVehContrib="18" flow="1080.00" occupancy="7.72" speed="18.77" length="5.00" nVehEntered="17"/>
    <interval begin="180.00" end="240.00" id="mainline_eval_1_1" nVehContrib="27" flow="1620.00" occupancy="11.81" speed="19.14" length="5.00" nVehEntered="27"/>
    <interval begin="180.00" end="240.00" id="mainline_eval_1_2" nVehContrib="34" flow="2040.00" occupancy="14.11" speed="20.65" length="5.00" nVehEntered="35"/>
    <interval begin="180.00" end="240.00" id="mainline_eval_2_0" nVehContrib="15" flow="900.00" occupancy="6.64" speed="18.93" length="5.00" nVehEntered="15"/>
    <interval begin="180.00" end="240.00" id="mainline_eval_2_1" nVehContrib="20" flow="1200.00" occupancy="8.70" speed="19.22" length="5.00" nVehEntered="20"/>
    <interval begin="180.00" end="240.00" id="mainline_eval_2_2" nVehContrib="33" flow="1980.00" occupancy="13.36" speed="20.92" length="5.00" nVehEntered="34"/>
    <interval begin="180.00" end="240.00" id="mainline_eval_3_0" nVehContrib="7" flow="420.00" occupancy="4.82" speed="12.39" length="5.00" nVehEntered="7"/>
    <interval begin="180.00" end="240.00" id="mainline_eval_3_1" nVehContrib="20" flow="1200.00" occupancy="11.60" speed="15.23" length="5.00" nVehEntered="21"/>
    <interval begin="180.00" end="240.00" id="mainline_eval_3_2" nVehContrib="30" flow="1800.00" occupancy="14.83" speed="18.74" length="5.00" nVehEntered="30"/>
    <interval begin="180.00" end="240.00" id="mainline_eval_3_3" nVehContrib="34" flow="2040.00" occupancy="13.48" speed="21.06" length="5.00" nVehEntered="34"/>
    <interval begin="180.00" end="240.00" id="mainline_eval_4_0" nVehContrib="3" flow="180.00" occupancy="3.02" speed="8.30" length="5.00" nVehEntered="4"/>
    <interval begin="180.00" end="240.00" id="mainline_eval_4_1" nVehContrib="27" flow="1620.00" occupancy="17.22" speed="14.91" length="5.00" nVehEntered="26"/>
    <interval begin="180.00" end="240.00" id="mainline_eval_4_2" nVehContrib="30" flow="1800.00" occupancy="13.44" speed="18.79" length="5.00" nVehEntered="30"/>
    <interval begin="180.00" end="240.00" id="mainline_eval_4_3" nVehContrib="34" flow="2040.00" occupancy="13.41" speed="21.16" length="5.00" nVehEntered="34"/>
    <interval begin="180.00" end="240.00" id="mainline_eval_5_0" nVehContrib="29" flow="1740.00" occupancy="13.83" speed="17.68" length="5.00" nVehEntered="29"/>
    <interval begin="180.00" end="240.00" id="mainline_eval_5_1" nVehContrib="30" flow="1800.00" occupancy="13.29" speed="18.94" length="5.00" nVehEntered="30"/>
    <interval begin="180.00" end="240.00" id="mainline_eval_5_2" nVehContrib="32" flow="1920.00" occupancy="12.49" speed="21.37" length="5.00" nVehEntered="32"/>
    <interval begin="180.00" end="240.00" id="mainline_eval_6_0" nVehContrib="28" flow="1680.00" occupancy="13.15" speed="17.84" length="5.00" nVehEntered="28"/>
    <interval begin="180.00" end="240.00" id="mainline_eval_6_1" nVehContrib="31" flow="1860.00" occupancy="13.58" speed="19.14" length="5.00" nVehEntered="31"/>
    <interval begin="180.00" end="240.00" id="mainline_eval_6_2" nVehContrib="32" flow="1920.00" occupancy="12.60" speed="21.20" length="5.00" nVehEntered="32"/>
    <interval begin="240.00" end="300.00" id="mainline_eval_0_0" nVehContrib="17" flow="1020.00" occupancy="8.52" speed="16.92" length="5.00" nVehEntered="17"/>
    <interval begin="240.00" end="300.00" id="mainline_eval_0_1" nVehContrib="26" flow="1560.00" occupancy="11.59" speed="18.82" length="5.00" nVehEntered="26"/>
    <interval begin="240.00" end="300.00" id="mainline_eval_0_2" nVehContrib="36" flow="2160.00" occupancy="14.63" speed="20.57" length="5.00" nVehEntered="36"/>
    <interval begin="240.00" end="300.00" id="mainline_eval_1_0" nVehContrib="17" flow="1020.00" occupancy="7.64" speed="18.65" length="5.00" nVehEntered="17"/>
    <interval begin="240.00" end="300.00" id="mainline_eval_1_1" nVehContrib="23" flow="1380.00" occupancy="9.60" speed="20.02" length="5.00" nVehEntered="23"/>
    <interval begin="240.00" end="300.00" id="mainline_eval_1_2" nVehContrib="32" flow="1920.00" occupancy="12.40" speed="20.93" length="5.00" nVehEntered="31"/>
    <interval begin="240.00" end="300.00" id="mainline_eval_2_0" nVehContrib="19" flow="1140.00" occupancy="8.76" speed="18.16" length="5.00" nVehEntered="19"/>
    <interval begin="240.00" end="300.00" id="mainline_eval_2_1" nVehContrib="28" flow="1680.00" occupancy="12.19" speed="19.20" length="5.00" nVehEntered="28"/>
    <interval begin="240.00" end="300.00" id="mainline_eval_2_2" nVehContrib="36" flow="2160.00" occupancy="14.52" speed="20.82" length="5.00" nVehEntered="36"/>
    <interval begin="240.00" end="300.00" id="mainline_eval_3_0" nVehContrib="9" flow="540.00" occupancy="7.98" speed="10.49" length="5.00" nVehEntered="12"/>
    <interval begin="240.00" end="300.00" id="mainline_eval_3_1" nVehContrib="21" flow="1260.00" occupancy="16.06" speed="12.94" length="5.00" nVehEntered="24"/>
    <interval begin="240.00" end="300.00" id="mainline_eval_3_2" nVehContrib="27" flow="1620.00" occupancy="19.13" speed="14.48" length="5.00" nVehEntered="28"/>
    <interval begin="240.00" end="300.00" id="mainline_eval_3_3" nVehContrib="34" flow="2040.00" occupancy="18.50" speed="17.45" length="5.00" nVehEntered="35"/>
    <interval begin="240.00" end="300.00" id="mainline_eval_4_0" nVehContrib="3" flow="180.00" occupancy="2.93" speed="8.64" length="5.00" nVehEntered="3"/>
    <interval begin="240.00" end="300.00" id="mainline_eval_4_1" nVehContrib="22" flow="1320.00" occupancy="15.28" speed="14.34" length="5.00" nVehEntered="22"/>
    <interval begin="240.00" end="300.00" id="mainline_eval_4_2" nVehContrib="26" flow="1560.00" occupancy="18.06" speed="15.13" length="5.00" nVehEntered="27"/>
    <interval begin="240.00" end="300.00" id="mainline_eval_4_3" nVehContrib="35" flow="2100.00" occupancy="18.58" speed="17.91" length="5.00" nVehEntered="35"/>
    <interval begin="240.00" end="300.00" id="mainline_eval_5_0" nVehContrib="23" flow="1380.00" occupancy="9.84" speed="19.53" length="5.00" nVehEntered="23"/>
    <interval begin="240.00" end="300.00" id="mainline_eval_5_1" nVehContrib="27" flow="1620.00" occupancy="11.79" speed="19.63" length="5.00" nVehEntered="28"/>
    <interval begin="240.00" end="300.00" id="mainline_eval_5_2" nVehContrib="34" flow="2040.00" occupancy="13.82" speed="20.52" length="5.00" nVehEntered="34"/>
    <interval begin="240.00" end="300.00" id="mainline_eval_6_0" nVehContrib="24" flow="1440.00" occupancy="10.25" speed="19.59" length="5.00" nVehEntered="24"/>
    <interval begin="240.00" end="300.00" id="mainline_eval_6_1" nVehContrib="27" flow="1620.00" occupancy="11.19" speed="20.13" length="5.00" nVehEntered="27"/>
    <interval begin="240.00" end="300.00" id="mainline_eval_6_2" nVehContrib="34" flow="2040.00" occupancy="13.61" speed="20.83" length="5.00" nVehEntered="34"/>
    <interval begin="300.00" end="319.00" id="mainline_eval_0_0" nVehContrib="6" flow="1136.84" occupancy="9.71" speed="16.26" length="5.00" nVehEntered="6"/>
    <interval begin="300.00" end="319.00" id="mainline_eval_0_1" nVehContrib="6" flow="1136.84" occupancy="9.20" speed="17.20" length="5.00" nVehEntered="6"/>
    <interval begin="300.00" end="319.00" id="mainline_eval_0_2" nVehContrib="8" flow="1515.79" occupancy="12.63" speed="16.71" length="5.00" nVehEntered="8"/>
    <interval begin="300.00" end="319.00" id="mainline_eval_1_0" nVehContrib="7" flow="1326.32" occupancy="17.11" speed="10.77" length="5.00" nVehEntered="7"/>
    <interval begin="300.00" end="319.00" id="mainline_eval_1_1" nVehContrib="6" flow="1136.84" occupancy="12.06" speed="13.45" length="5.00" nVehEntered="6"/>
    <interval begin="300.00" end="319.00" id="mainline_eval_1_2" nVehContrib="8" flow="1515.79" occupancy="19.11" speed="11.22" length="5.00" nVehEntered="8"/>
    <interval begin="300.00" end="319.00" id="mainline_eval_2_0" nVehContrib="2" flow="378.95" occupancy="4.93" speed="10.68" length="5.00" nVehEntered="2"/>
    <interval begin="300.00" end="319.00" id="mainline_eval_2_1" nVehContrib="9" flow="1705.26" occupancy="16.15" speed="15.05" length="5.00" nVehEntered="9"/>
    <interval begin="300.00" end="319.00" id="mainline_eval_2_2" nVehContrib="5" flow="947.37" occupancy="10.32" speed="12.26" length="5.00" nVehEntered="4"/>
    <interval begin="300.00" end="319.00" id="mainline_eval_3_0" nVehContrib="2" flow="378.95" occupancy="2.04" speed="13.02" length="5.00" nVehEntered="2"/>
    <interval begin="300.00" end="319.00" id="mainline_eval_3_1" nVehContrib="9" flow="1705.26" occupancy="36.48" speed="7.05" length="5.00" nVehEntered="8"/>
    <interval begin="300.00" end="319.00" id="mainline_eval_3_2" nVehContrib="10" flow="1894.74" occupancy="23.90" speed="12.64" length="5.00" nVehEntered="10"/>
    <interval begin="300.00" end="319.00" id="mainline_eval_3_3" nVehContrib="7" flow="1326.32" occupancy="15.67" speed="11.78" length="5.00" nVehEntered="7"/>
    <interval begin="300.00" end="319.00" id="mainline_eval_4_0" nVehContrib="2" flow="378.95" occupancy="3.34" speed="15.78" length="5.00" nVehEntered="2"/>
    <interval begin="300.00" end="319.00" id="mainline_eval_4_1" nVehContrib="9" flow="1705.26" occupancy="20.16" speed="11.84" length="5.00" nVehEntered="9"/>
    <interval begin="300.00" end="319.00" id="mainline_eval_4_2" nVehContrib="11" flow="2084.21" occupancy="20.42" speed="14.20" length="5.00" nVehEntered="10"/>
    <interval begin="300.00" end="319.00" id="mainline_eval_4_3" nVehContrib="9" flow="1705.26" occupancy="15.71" speed="15.13" length="5.00" nVehEntered="9"/>
    <interval begin="300.00" end="319.00" id="mainline_eval_5_0" nVehContrib="8" flow="1515.79" occupancy="12.83" speed="16.52" length="5.00" nVehEntered="8"/>
    <interval begin="300.00" end="319.00" id="mainline_eval_5_1" nVehContrib="12" flow="2273.68" occupancy="17.69" speed="17.97" length="5.00" nVehEntered="12"/>
    <interval begin="300.00" end="319.00" id="mainline_eval_5_2" nVehContrib="11" flow="2084.21" occupancy="14.48" speed="21.00" length="5.00" nVehEntered="12"/>
    <interval begin="300.00" end="319.00" id="mainline_eval_6_0" nVehContrib="6" flow="1136.84" occupancy="9.31" speed="17.03" length="5.00" nVehEntered="6"/>
    <interval begin="300.00" end="319.00" id="mainline_eval_6_1" nVehContrib="11" flow="2084.21" occupancy="16.49" speed="18.39" length="5.00" nVehEntered="12"/>
    <interval begin="300.00" end="319.00" id="mainline_eval_6_2" nVehContrib="12" flow="2273.68" occupancy="15.23" speed="20.74" length="5.00" nVehEntered="12"/>
</detector>
