<?xml version="1.0" encoding="UTF-8"?>

<!-- generated on 02/12/19 19:07:55 by Eclipse SUMO Version 1.0.1
<configuration xmlns:xsi="http://www.w3.org/2001/XMLSchema-instance" xsi:noNamespaceSchemaLocation="http://sumo.dlr.de/xsd/sumoConfiguration.xsd">

    <input>
        <net-file value="./project/ramp.net.xml"/>
        <route-files value="./project/ramp.rou.xml"/>
        <additional-files value="./project/ramp.add.xml"/>
    </input>

    <time>
        <begin value="0"/>
    </time>

    <report>
        <verbose value="true"/>
        <no-step-log value="true"/>
    </report>

    <traci_server>
        <remote-port value="53736"/>
    </traci_server>

    <random_number>
        <seed value="1422173763"/>
    </random_number>

    <gui_only>
        <quit-on-end value="true"/>
        <start value="true"/>
    </gui_only>

</configuration>
-->

<detector xmlns:xsi="http://www.w3.org/2001/XMLSchema-instance" xsi:noNamespaceSchemaLocation="http://sumo.dlr.de/xsd/det_e1_file.xsd">
    <interval begin="0.00" end="60.00" id="mainline_eval_0_0" nVehContrib="1" flow="60.00" occupancy="0.32" speed="26.01" length="5.00" nVehEntered="1"/>
    <interval begin="0.00" end="60.00" id="mainline_eval_0_1" nVehContrib="0" flow="0.00" occupancy="0.00" speed="-1.00" length="-1.00" nVehEntered="0"/>
    <interval begin="0.00" end="60.00" id="mainline_eval_0_2" nVehContrib="0" flow="0.00" occupancy="0.00" speed="-1.00" length="-1.00" nVehEntered="0"/>
    <interval begin="0.00" end="60.00" id="mainline_eval_1_0" nVehContrib="0" flow="0.00" occupancy="0.00" speed="-1.00" length="-1.00" nVehEntered="0"/>
    <interval begin="0.00" end="60.00" id="mainline_eval_1_1" nVehContrib="0" flow="0.00" occupancy="0.00" speed="-1.00" length="-1.00" nVehEntered="0"/>
    <interval begin="0.00" end="60.00" id="mainline_eval_1_2" nVehContrib="0" flow="0.00" occupancy="0.00" speed="-1.00" length="-1.00" nVehEntered="0"/>
    <interval begin="0.00" end="60.00" id="mainline_eval_2_0" nVehContrib="0" flow="0.00" occupancy="0.00" speed="-1.00" length="-1.00" nVehEntered="0"/>
    <interval begin="0.00" end="60.00" id="mainline_eval_2_1" nVehContrib="0" flow="0.00" occupancy="0.00" speed="-1.00" length="-1.00" nVehEntered="0"/>
    <interval begin="0.00" end="60.00" id="mainline_eval_2_2" nVehContrib="0" flow="0.00" occupancy="0.00" speed="-1.00" length="-1.00" nVehEntered="0"/>
    <interval begin="0.00" end="60.00" id="mainline_eval_3_0" nVehContrib="0" flow="0.00" occupancy="0.00" speed="-1.00" length="-1.00" nVehEntered="0"/>
    <interval begin="0.00" end="60.00" id="mainline_eval_3_1" nVehContrib="0" flow="0.00" occupancy="0.00" speed="-1.00" length="-1.00" nVehEntered="0"/>
    <interval begin="0.00" end="60.00" id="mainline_eval_3_2" nVehContrib="0" flow="0.00" occupancy="0.00" speed="-1.00" length="-1.00" nVehEntered="0"/>
    <interval begin="0.00" end="60.00" id="mainline_eval_3_3" nVehContrib="0" flow="0.00" occupancy="0.00" speed="-1.00" length="-1.00" nVehEntered="0"/>
    <interval begin="0.00" end="60.00" id="mainline_eval_4_0" nVehContrib="0" flow="0.00" occupancy="0.00" speed="-1.00" length="-1.00" nVehEntered="0"/>
    <interval begin="0.00" end="60.00" id="mainline_eval_4_1" nVehContrib="0" flow="0.00" occupancy="0.00" speed="-1.00" length="-1.00" nVehEntered="0"/>
    <interval begin="0.00" end="60.00" id="mainline_eval_4_2" nVehContrib="0" flow="0.00" occupancy="0.00" speed="-1.00" length="-1.00" nVehEntered="0"/>
    <interval begin="0.00" end="60.00" id="mainline_eval_4_3" nVehContrib="0" flow="0.00" occupancy="0.00" speed="-1.00" length="-1.00" nVehEntered="0"/>
    <interval begin="0.00" end="60.00" id="mainline_eval_5_0" nVehContrib="0" flow="0.00" occupancy="0.00" speed="-1.00" length="-1.00" nVehEntered="0"/>
    <interval begin="0.00" end="60.00" id="mainline_eval_5_1" nVehContrib="0" flow="0.00" occupancy="0.00" speed="-1.00" length="-1.00" nVehEntered="0"/>
    <interval begin="0.00" end="60.00" id="mainline_eval_5_2" nVehContrib="0" flow="0.00" occupancy="0.00" speed="-1.00" length="-1.00" nVehEntered="0"/>
    <interval begin="0.00" end="60.00" id="mainline_eval_6_0" nVehContrib="0" flow="0.00" occupancy="0.00" speed="-1.00" length="-1.00" nVehEntered="0"/>
    <interval begin="0.00" end="60.00" id="mainline_eval_6_1" nVehContrib="0" flow="0.00" occupancy="0.00" speed="-1.00" length="-1.00" nVehEntered="0"/>
    <interval begin="0.00" end="60.00" id="mainline_eval_6_2" nVehContrib="0" flow="0.00" occupancy="0.00" speed="-1.00" length="-1.00" nVehEntered="0"/>
    <interval begin="60.00" end="120.00" id="mainline_eval_0_0" nVehContrib="17" flow="1020.00" occupancy="7.32" speed="19.61" length="5.00" nVehEntered="17"/>
    <interval begin="60.00" end="120.00" id="mainline_eval_0_1" nVehContrib="15" flow="900.00" occupancy="6.45" speed="19.60" length="5.00" nVehEntered="15"/>
    <interval begin="60.00" end="120.00" id="mainline_eval_0_2" nVehContrib="22" flow="1320.00" occupancy="9.12" speed="20.28" length="5.00" nVehEntered="22"/>
    <interval begin="60.00" end="120.00" id="mainline_eval_1_0" nVehContrib="11" flow="660.00" occupancy="4.49" speed="20.87" length="5.00" nVehEntered="11"/>
    <interval begin="60.00" end="120.00" id="mainline_eval_1_1" nVehContrib="6" flow="360.00" occupancy="2.24" speed="22.56" length="5.00" nVehEntered="6"/>
    <interval begin="60.00" end="120.00" id="mainline_eval_1_2" nVehContrib="9" flow="540.00" occupancy="3.69" speed="21.58" length="5.00" nVehEntered="10"/>
    <interval begin="60.00" end="120.00" id="mainline_eval_2_0" nVehContrib="7" flow="420.00" occupancy="2.46" speed="23.84" length="5.00" nVehEntered="7"/>
    <interval begin="60.00" end="120.00" id="mainline_eval_2_1" nVehContrib="2" flow="120.00" occupancy="0.73" speed="23.00" length="5.00" nVehEntered="2"/>
    <interval begin="60.00" end="120.00" id="mainline_eval_2_2" nVehContrib="0" flow="0.00" occupancy="0.00" speed="-1.00" length="-1.00" nVehEntered="0"/>
    <interval begin="60.00" end="120.00" id="mainline_eval_3_0" nVehContrib="0" flow="0.00" occupancy="0.00" speed="-1.00" length="-1.00" nVehEntered="0"/>
    <interval begin="60.00" end="120.00" id="mainline_eval_3_1" nVehContrib="6" flow="360.00" occupancy="2.05" speed="24.40" length="5.00" nVehEntered="6"/>
    <interval begin="60.00" end="120.00" id="mainline_eval_3_2" nVehContrib="1" flow="60.00" occupancy="0.34" speed="24.82" length="5.00" nVehEntered="1"/>
    <interval begin="60.00" end="120.00" id="mainline_eval_3_3" nVehContrib="0" flow="0.00" occupancy="0.00" speed="-1.00" length="-1.00" nVehEntered="0"/>
    <interval begin="60.00" end="120.00" id="mainline_eval_4_0" nVehContrib="0" flow="0.00" occupancy="0.00" speed="-1.00" length="-1.00" nVehEntered="0"/>
    <interval begin="60.00" end="120.00" id="mainline_eval_4_1" nVehContrib="6" flow="360.00" occupancy="2.08" speed="24.15" length="5.00" nVehEntered="6"/>
    <interval begin="60.00" end="120.00" id="mainline_eval_4_2" nVehContrib="1" flow="60.00" occupancy="0.34" speed="24.62" length="5.00" nVehEntered="1"/>
    <interval begin="60.00" end="120.00" id="mainline_eval_4_3" nVehContrib="0" flow="0.00" occupancy="0.00" speed="-1.00" length="-1.00" nVehEntered="0"/>
    <interval begin="60.00" end="120.00" id="mainline_eval_5_0" nVehContrib="3" flow="180.00" occupancy="0.97" speed="25.75" length="5.00" nVehEntered="3"/>
    <interval begin="60.00" end="120.00" id="mainline_eval_5_1" nVehContrib="0" flow="0.00" occupancy="0.00" speed="-1.00" length="-1.00" nVehEntered="0"/>
    <interval begin="60.00" end="120.00" id="mainline_eval_5_2" nVehContrib="0" flow="0.00" occupancy="0.00" speed="-1.00" length="-1.00" nVehEntered="0"/>
    <interval begin="60.00" end="120.00" id="mainline_eval_6_0" nVehContrib="3" flow="180.00" occupancy="0.98" speed="25.53" length="5.00" nVehEntered="3"/>
    <interval begin="60.00" end="120.00" id="mainline_eval_6_1" nVehContrib="0" flow="0.00" occupancy="0.00" speed="-1.00" length="-1.00" nVehEntered="0"/>
    <interval begin="60.00" end="120.00" id="mainline_eval_6_2" nVehContrib="0" flow="0.00" occupancy="0.00" speed="-1.00" length="-1.00" nVehEntered="0"/>
    <interval begin="120.00" end="180.00" id="mainline_eval_0_0" nVehContrib="12" flow="720.00" occupancy="6.04" speed="17.34" length="5.00" nVehEntered="13"/>
    <interval begin="120.00" end="180.00" id="mainline_eval_0_1" nVehContrib="25" flow="1500.00" occupancy="12.68" speed="18.28" length="5.00" nVehEntered="25"/>
    <interval begin="120.00" end="180.00" id="mainline_eval_0_2" nVehContrib="32" flow="1920.00" occupancy="12.74" speed="21.02" length="5.00" nVehEntered="33"/>
    <interval begin="120.00" end="180.00" id="mainline_eval_1_0" nVehContrib="16" flow="960.00" occupancy="7.15" speed="18.69" length="5.00" nVehEntered="16"/>
    <interval begin="120.00" end="180.00" id="mainline_eval_1_1" nVehContrib="23" flow="1380.00" occupancy="10.09" speed="19.13" length="5.00" nVehEntered="24"/>
    <interval begin="120.00" end="180.00" id="mainline_eval_1_2" nVehContrib="32" flow="1920.00" occupancy="12.83" speed="20.55" length="5.00" nVehEntered="31"/>
    <interval begin="120.00" end="180.00" id="mainline_eval_2_0" nVehContrib="15" flow="900.00" occupancy="6.79" speed="18.43" length="5.00" nVehEntered="15"/>
    <interval begin="120.00" end="180.00" id="mainline_eval_2_1" nVehContrib="22" flow="1320.00" occupancy="9.47" speed="19.47" length="5.00" nVehEntered="22"/>
    <interval begin="120.00" end="180.00" id="mainline_eval_2_2" nVehContrib="30" flow="1800.00" occupancy="12.27" speed="20.59" length="5.00" nVehEntered="31"/>
    <interval begin="120.00" end="180.00" id="mainline_eval_3_0" nVehContrib="4" flow="240.00" occupancy="3.60" speed="9.66" length="5.00" nVehEntered="5"/>
    <interval begin="120.00" end="180.00" id="mainline_eval_3_1" nVehContrib="14" flow="840.00" occupancy="14.19" speed="11.29" length="5.00" nVehEntered="15"/>
    <interval begin="120.00" end="180.00" id="mainline_eval_3_2" nVehContrib="21" flow="1260.00" occupancy="13.88" speed="16.10" length="5.00" nVehEntered="21"/>
    <interval begin="120.00" end="180.00" id="mainline_eval_3_3" nVehContrib="22" flow="1320.00" occupancy="9.26" speed="20.28" length="5.00" nVehEntered="23"/>
    <interval begin="120.00" end="180.00" id="mainline_eval_4_0" nVehContrib="0" flow="0.00" occupancy="0.00" speed="-1.00" length="-1.00" nVehEntered="0"/>
    <interval begin="120.00" end="180.00" id="mainline_eval_4_1" nVehContrib="17" flow="1020.00" occupancy="9.90" speed="14.84" length="5.00" nVehEntered="17"/>
    <interval begin="120.00" end="180.00" id="mainline_eval_4_2" nVehContrib="19" flow="1140.00" occupancy="9.60" speed="17.38" length="5.00" nVehEntered="19"/>
    <interval begin="120.00" end="180.00" id="mainline_eval_4_3" nVehContrib="22" flow="1320.00" occupancy="9.12" speed="20.25" length="5.00" nVehEntered="22"/>
    <interval begin="120.00" end="180.00" id="mainline_eval_5_0" nVehContrib="15" flow="900.00" occupancy="6.38" speed="19.83" length="5.00" nVehEntered="15"/>
    <interval begin="120.00" end="180.00" id="mainline_eval_5_1" nVehContrib="14" flow="840.00" occupancy="5.87" speed="20.06" length="5.00" nVehEntered="14"/>
    <interval begin="120.00" end="180.00" id="mainline_eval_5_2" nVehContrib="15" flow="900.00" occupancy="6.15" speed="20.53" length="5.00" nVehEntered="15"/>
    <interval begin="120.00" end="180.00" id="mainline_eval_6_0" nVehContrib="12" flow="720.00" occupancy="5.10" speed="19.90" length="5.00" nVehEntered="12"/>
    <interval begin="120.00" end="180.00" id="mainline_eval_6_1" nVehContrib="13" flow="780.00" occupancy="5.41" speed="20.21" length="5.00" nVehEntered="13"/>
    <interval begin="120.00" end="180.00" id="mainline_eval_6_2" nVehContrib="12" flow="720.00" occupancy="4.78" speed="21.14" length="5.00" nVehEntered="12"/>
    <interval begin="180.00" end="240.00" id="mainline_eval_0_0" nVehContrib="22" flow="1320.00" occupancy="10.28" speed="17.63" length="5.00" nVehEntered="21"/>
    <interval begin="180.00" end="240.00" id="mainline_eval_0_1" nVehContrib="28" flow="1680.00" occupancy="11.77" speed="19.90" length="5.00" nVehEntered="28"/>
    <interval begin="180.00" end="240.00" id="mainline_eval_0_2" nVehContrib="35" flow="2100.00" occupancy="13.43" speed="21.75" length="5.00" nVehEntered="35"/>
    <interval begin="180.00" end="240.00" id="mainline_eval_1_0" nVehContrib="16" flow="960.00" occupancy="7.63" speed="17.54" length="5.00" nVehEntered="16"/>
    <interval begin="180.00" end="240.00" id="mainline_eval_1_1" nVehContrib="35" flow="2100.00" occupancy="15.23" speed="19.30" length="5.00" nVehEntered="35"/>
    <interval begin="180.00" end="240.00" id="mainline_eval_1_2" nVehContrib="37" flow="2220.00" occupancy="15.18" speed="20.35" length="5.00" nVehEntered="37"/>
    <interval begin="180.00" end="240.00" id="mainline_eval_2_0" nVehContrib="16" flow="960.00" occupancy="8.00" speed="16.84" length="5.00" nVehEntered="16"/>
    <interval begin="180.00" end="240.00" id="mainline_eval_2_1" nVehContrib="29" flow="1740.00" occupancy="12.77" speed="18.99" length="5.00" nVehEntered="29"/>
    <interval begin="180.00" end="240.00" id="mainline_eval_2_2" nVehContrib="33" flow="1980.00" occupancy="13.47" speed="20.42" length="5.00" nVehEntered="32"/>
    <interval begin="180.00" end="240.00" id="mainline_eval_3_0" nVehContrib="4" flow="240.00" occupancy="2.91" speed="11.87" length="5.00" nVehEntered="4"/>
    <interval begin="180.00" end="240.00" id="mainline_eval_3_1" nVehContrib="25" flow="1500.00" occupancy="13.76" speed="15.57" length="5.00" nVehEntered="25"/>
    <interval begin="180.00" end="240.00" id="mainline_eval_3_2" nVehContrib="26" flow="1560.00" occupancy="11.39" speed="19.09" length="5.00" nVehEntered="26"/>
    <interval begin="180.00" end="240.00" id="mainline_eval_3_3" nVehContrib="34" flow="2040.00" occupancy="13.48" speed="20.84" length="5.00" nVehEntered="33"/>
    <interval begin="180.00" end="240.00" id="mainline_eval_4_0" nVehContrib="0" flow="0.00" occupancy="0.00" speed="-1.00" length="-1.00" nVehEntered="0"/>
    <interval begin="180.00" end="240.00" id="mainline_eval_4_1" nVehContrib="26" flow="1560.00" occupancy="13.35" speed="16.46" length="5.00" nVehEntered="27"/>
    <interval begin="180.00" end="240.00" id="mainline_eval_4_2" nVehContrib="29" flow="1740.00" occupancy="14.17" speed="18.49" length="5.00" nVehEntered="29"/>
    <interval begin="180.00" end="240.00" id="mainline_eval_4_3" nVehContrib="34" flow="2040.00" occupancy="13.78" speed="20.64" length="5.00" nVehEntered="34"/>
    <interval begin="180.00" end="240.00" id="mainline_eval_5_0" nVehContrib="26" flow="1560.00" occupancy="11.73" speed="18.52" length="5.00" nVehEntered="26"/>
    <interval begin="180.00" end="240.00" id="mainline_eval_5_1" nVehContrib="31" flow="1860.00" occupancy="13.87" speed="18.65" length="5.00" nVehEntered="31"/>
    <interval begin="180.00" end="240.00" id="mainline_eval_5_2" nVehContrib="35" flow="2100.00" occupancy="14.85" speed="19.67" length="5.00" nVehEntered="35"/>
    <interval begin="180.00" end="240.00" id="mainline_eval_6_0" nVehContrib="27" flow="1620.00" occupancy="12.15" speed="18.57" length="5.00" nVehEntered="27"/>
    <interval begin="180.00" end="240.00" id="mainline_eval_6_1" nVehContrib="30" flow="1800.00" occupancy="13.32" speed="18.85" length="5.00" nVehEntered="30"/>
    <interval begin="180.00" end="240.00" id="mainline_eval_6_2" nVehContrib="35" flow="2100.00" occupancy="14.37" speed="20.34" length="5.00" nVehEntered="35"/>
    <interval begin="240.00" end="300.00" id="mainline_eval_0_0" nVehContrib="18" flow="1080.00" occupancy="7.80" speed="19.29" length="5.00" nVehEntered="18"/>
    <interval begin="240.00" end="300.00" id="mainline_eval_0_1" nVehContrib="28" flow="1680.00" occupancy="11.34" speed="20.61" length="5.00" nVehEntered="28"/>
    <interval begin="240.00" end="300.00" id="mainline_eval_0_2" nVehContrib="29" flow="1740.00" occupancy="11.23" speed="21.56" length="5.00" nVehEntered="29"/>
    <interval begin="240.00" end="300.00" id="mainline_eval_1_0" nVehContrib="17" flow="1020.00" occupancy="7.46" speed="19.05" length="5.00" nVehEntered="17"/>
    <interval begin="240.00" end="300.00" id="mainline_eval_1_1" nVehContrib="26" flow="1560.00" occupancy="11.92" speed="20.05" length="5.00" nVehEntered="25"/>
    <interval begin="240.00" end="300.00" id="mainline_eval_1_2" nVehContrib="30" flow="1800.00" occupancy="11.41" speed="21.92" length="5.00" nVehEntered="31"/>
    <interval begin="240.00" end="300.00" id="mainline_eval_2_0" nVehContrib="16" flow="960.00" occupancy="7.21" speed="18.62" length="5.00" nVehEntered="16"/>
    <interval begin="240.00" end="300.00" id="mainline_eval_2_1" nVehContrib="32" flow="1920.00" occupancy="13.02" speed="20.51" length="5.00" nVehEntered="32"/>
    <interval begin="240.00" end="300.00" id="mainline_eval_2_2" nVehContrib="35" flow="2100.00" occupancy="13.79" speed="21.17" length="5.00" nVehEntered="35"/>
    <interval begin="240.00" end="300.00" id="mainline_eval_3_0" nVehContrib="11" flow="660.00" occupancy="7.30" speed="12.83" length="5.00" nVehEntered="11"/>
    <interval begin="240.00" end="300.00" id="mainline_eval_3_1" nVehContrib="20" flow="1200.00" occupancy="21.85" speed="10.55" length="5.00" nVehEntered="20"/>
    <interval begin="240.00" end="300.00" id="mainline_eval_3_2" nVehContrib="32" flow="1920.00" occupancy="18.87" speed="15.62" length="5.00" nVehEntered="32"/>
    <interval begin="240.00" end="300.00" id="mainline_eval_3_3" nVehContrib="39" flow="2340.00" occupancy="15.89" speed="20.65" length="5.00" nVehEntered="40"/>
    <interval begin="240.00" end="300.00" id="mainline_eval_4_0" nVehContrib="4" flow="240.00" occupancy="3.16" speed="11.12" length="5.00" nVehEntered="4"/>
    <interval begin="240.00" end="300.00" id="mainline_eval_4_1" nVehContrib="25" flow="1500.00" occupancy="17.60" speed="13.25" length="5.00" nVehEntered="25"/>
    <interval begin="240.00" end="300.00" id="mainline_eval_4_2" nVehContrib="33" flow="1980.00" occupancy="17.93" speed="16.14" length="5.00" nVehEntered="33"/>
    <interval begin="240.00" end="300.00" id="mainline_eval_4_3" nVehContrib="39" flow="2340.00" occupancy="15.74" speed="20.67" length="5.00" nVehEntered="39"/>
    <interval begin="240.00" end="300.00" id="mainline_eval_5_0" nVehContrib="26" flow="1560.00" occupancy="12.99" speed="16.82" length="5.00" nVehEntered="26"/>
    <interval begin="240.00" end="300.00" id="mainline_eval_5_1" nVehContrib="31" flow="1860.00" occupancy="14.52" speed="18.01" length="5.00" nVehEntered="31"/>
    <interval begin="240.00" end="300.00" id="mainline_eval_5_2" nVehContrib="40" flow="2400.00" occupancy="16.13" speed="20.67" length="5.00" nVehEntered="40"/>
    <interval begin="240.00" end="300.00" id="mainline_eval_6_0" nVehContrib="24" flow="1440.00" occupancy="11.82" speed="17.06" length="5.00" nVehEntered="24"/>
    <interval begin="240.00" end="300.00" id="mainline_eval_6_1" nVehContrib="32" flow="1920.00" occupancy="14.44" speed="18.57" length="5.00" nVehEntered="32"/>
    <interval begin="240.00" end="300.00" id="mainline_eval_6_2" nVehContrib="40" flow="2400.00" occupancy="16.56" speed="20.64" length="5.00" nVehEntered="41"/>
    <interval begin="300.00" end="360.00" id="mainline_eval_0_0" nVehContrib="19" flow="1140.00" occupancy="8.58" speed="18.49" length="5.00" nVehEntered="19"/>
    <interval begin="300.00" end="360.00" id="mainline_eval_0_1" nVehContrib="23" flow="1380.00" occupancy="9.68" speed="19.89" length="5.00" nVehEntered="23"/>
    <interval begin="300.00" end="360.00" id="mainline_eval_0_2" nVehContrib="31" flow="1860.00" occupancy="12.27" speed="21.08" length="5.00" nVehEntered="31"/>
    <interval begin="300.00" end="360.00" id="mainline_eval_1_0" nVehContrib="20" flow="1200.00" occupancy="8.58" speed="19.46" length="5.00" nVehEntered="20"/>
    <interval begin="300.00" end="360.00" id="mainline_eval_1_1" nVehContrib="26" flow="1560.00" occupancy="10.47" speed="20.72" length="5.00" nVehEntered="26"/>
    <interval begin="300.00" end="360.00" id="mainline_eval_1_2" nVehContrib="30" flow="1800.00" occupancy="11.65" speed="21.46" length="5.00" nVehEntered="30"/>
    <interval begin="300.00" end="360.00" id="mainline_eval_2_0" nVehContrib="20" flow="1200.00" occupancy="8.84" speed="18.93" length="5.00" nVehEntered="20"/>
    <interval begin="300.00" end="360.00" id="mainline_eval_2_1" nVehContrib="22" flow="1320.00" occupancy="9.16" speed="20.05" length="5.00" nVehEntered="22"/>
    <interval begin="300.00" end="360.00" id="mainline_eval_2_2" nVehContrib="31" flow="1860.00" occupancy="12.33" speed="20.99" length="5.00" nVehEntered="31"/>
    <interval begin="300.00" end="360.00" id="mainline_eval_3_0" nVehContrib="10" flow="600.00" occupancy="7.79" speed="11.10" length="5.00" nVehEntered="10"/>
    <interval begin="300.00" end="360.00" id="mainline_eval_3_1" nVehContrib="26" flow="1560.00" occupancy="18.55" speed="12.31" length="5.00" nVehEntered="27"/>
    <interval begin="300.00" end="360.00" id="mainline_eval_3_2" nVehContrib="30" flow="1800.00" occupancy="15.65" speed="17.77" length="5.00" nVehEntered="30"/>
    <interval begin="300.00" end="360.00" id="mainline_eval_3_3" nVehContrib="33" flow="1980.00" occupancy="13.12" speed="20.86" length="5.00" nVehEntered="32"/>
    <interval begin="300.00" end="360.00" id="mainline_eval_4_0" nVehContrib="2" flow="120.00" occupancy="1.94" speed="8.61" length="5.00" nVehEntered="2"/>
    <interval begin="300.00" end="360.00" id="mainline_eval_4_1" nVehContrib="29" flow="1740.00" occupancy="18.83" speed="13.28" length="5.00" nVehEntered="29"/>
    <interval begin="300.00" end="360.00" id="mainline_eval_4_2" nVehContrib="34" flow="2040.00" occupancy="15.66" speed="18.34" length="5.00" nVehEntered="34"/>
    <interval begin="300.00" end="360.00" id="mainline_eval_4_3" nVehContrib="34" flow="2040.00" occupancy="13.65" speed="20.78" length="5.00" nVehEntered="34"/>
    <interval begin="300.00" end="360.00" id="mainline_eval_5_0" nVehContrib="28" flow="1680.00" occupancy="13.12" speed="17.88" length="5.00" nVehEntered="28"/>
    <interval begin="300.00" end="360.00" id="mainline_eval_5_1" nVehContrib="35" flow="2100.00" occupancy="15.99" speed="18.30" length="5.00" nVehEntered="35"/>
    <interval begin="300.00" end="360.00" id="mainline_eval_5_2" nVehContrib="36" flow="2160.00" occupancy="15.01" speed="20.06" length="5.00" nVehEntered="36"/>
    <interval begin="300.00" end="360.00" id="mainline_eval_6_0" nVehContrib="26" flow="1560.00" occupancy="12.02" speed="18.08" length="5.00" nVehEntered="26"/>
    <interval begin="300.00" end="360.00" id="mainline_eval_6_1" nVehContrib="35" flow="2100.00" occupancy="15.44" speed="18.93" length="5.00" nVehEntered="36"/>
    <interval begin="300.00" end="360.00" id="mainline_eval_6_2" nVehContrib="36" flow="2160.00" occupancy="14.61" speed="20.08" length="5.00" nVehEntered="35"/>
    <interval begin="360.00" end="420.00" id="mainline_eval_0_0" nVehContrib="22" flow="1320.00" occupancy="10.62" speed="17.42" length="5.00" nVehEntered="22"/>
    <interval begin="360.00" end="420.00" id="mainline_eval_0_1" nVehContrib="26" flow="1560.00" occupancy="11.00" speed="19.74" length="5.00" nVehEntered="26"/>
    <interval begin="360.00" end="420.00" id="mainline_eval_0_2" nVehContrib="31" flow="1860.00" occupancy="12.20" speed="21.20" length="5.00" nVehEntered="31"/>
    <interval begin="360.00" end="420.00" id="mainline_eval_1_0" nVehContrib="19" flow="1140.00" occupancy="8.73" speed="18.18" length="5.00" nVehEntered="19"/>
    <interval begin="360.00" end="420.00" id="mainline_eval_1_1" nVehContrib="25" flow="1500.00" occupancy="11.12" speed="18.80" length="5.00" nVehEntered="25"/>
    <interval begin="360.00" end="420.00" id="mainline_eval_1_2" nVehContrib="30" flow="1800.00" occupancy="11.92" speed="21.00" length="5.00" nVehEntered="30"/>
    <interval begin="360.00" end="420.00" id="mainline_eval_2_0" nVehContrib="21" flow="1260.00" occupancy="9.64" speed="18.21" length="5.00" nVehEntered="21"/>
    <interval begin="360.00" end="420.00" id="mainline_eval_2_1" nVehContrib="26" flow="1560.00" occupancy="11.54" speed="18.92" length="5.00" nVehEntered="26"/>
    <interval begin="360.00" end="420.00" id="mainline_eval_2_2" nVehContrib="29" flow="1740.00" occupancy="11.37" speed="21.26" length="5.00" nVehEntered="29"/>
    <interval begin="360.00" end="420.00" id="mainline_eval_3_0" nVehContrib="10" flow="600.00" occupancy="6.62" speed="12.94" length="5.00" nVehEntered="11"/>
    <interval begin="360.00" end="420.00" id="mainline_eval_3_1" nVehContrib="23" flow="1380.00" occupancy="23.27" speed="10.41" length="5.00" nVehEntered="25"/>
    <interval begin="360.00" end="420.00" id="mainline_eval_3_2" nVehContrib="29" flow="1740.00" occupancy="14.92" speed="18.18" length="5.00" nVehEntered="29"/>
    <interval begin="360.00" end="420.00" id="mainline_eval_3_3" nVehContrib="30" flow="1800.00" occupancy="11.93" speed="21.02" length="5.00" nVehEntered="30"/>
    <interval begin="360.00" end="420.00" id="mainline_eval_4_0" nVehContrib="2" flow="120.00" occupancy="1.39" speed="12.23" length="5.00" nVehEntered="3"/>
    <interval begin="360.00" end="420.00" id="mainline_eval_4_1" nVehContrib="27" flow="1620.00" occupancy="19.80" speed="12.93" length="5.00" nVehEntered="28"/>
    <interval begin="360.00" end="420.00" id="mainline_eval_4_2" nVehContrib="29" flow="1740.00" occupancy="13.12" speed="18.66" length="5.00" nVehEntered="29"/>
    <interval begin="360.00" end="420.00" id="mainline_eval_4_3" nVehContrib="30" flow="1800.00" occupancy="11.75" speed="21.30" length="5.00" nVehEntered="30"/>
    <interval begin="360.00" end="420.00" id="mainline_eval_5_0" nVehContrib="27" flow="1620.00" occupancy="12.16" speed="18.64" length="5.00" nVehEntered="27"/>
    <interval begin="360.00" end="420.00" id="mainline_eval_5_1" nVehContrib="29" flow="1740.00" occupancy="12.65" speed="19.15" length="5.00" nVehEntered="29"/>
    <interval begin="360.00" end="420.00" id="mainline_eval_5_2" nVehContrib="31" flow="1860.00" occupancy="12.13" speed="21.31" length="5.00" nVehEntered="31"/>
    <interval begin="360.00" end="420.00" id="mainline_eval_6_0" nVehContrib="27" flow="1620.00" occupancy="12.33" speed="18.32" length="5.00" nVehEntered="28"/>
    <interval begin="360.00" end="420.00" id="mainline_eval_6_1" nVehContrib="31" flow="1860.00" occupancy="15.22" speed="18.44" length="5.00" nVehEntered="31"/>
    <interval begin="360.00" end="420.00" id="mainline_eval_6_2" nVehContrib="32" flow="1920.00" occupancy="14.26" speed="20.32" length="5.00" nVehEntered="32"/>
</detector>
