<?xml version="1.0" encoding="UTF-8"?>

<!-- generated on 02/23/19 00:12:32 by Eclipse SUMO Version 1.0.1
<configuration xmlns:xsi="http://www.w3.org/2001/XMLSchema-instance" xsi:noNamespaceSchemaLocation="http://sumo.dlr.de/xsd/sumoConfiguration.xsd">

    <input>
        <net-file value="./project/ramp.net.xml"/>
        <route-files value="./project/ramp.rou.xml"/>
        <additional-files value="./project/ramp.add.xml"/>
    </input>

    <time>
        <begin value="0"/>
    </time>

    <report>
        <verbose value="true"/>
        <no-step-log value="true"/>
    </report>

    <traci_server>
        <remote-port value="57478"/>
    </traci_server>

    <random_number>
        <seed value="443673570"/>
    </random_number>

    <gui_only>
        <quit-on-end value="true"/>
        <start value="true"/>
    </gui_only>

</configuration>
-->

<detector xmlns:xsi="http://www.w3.org/2001/XMLSchema-instance" xsi:noNamespaceSchemaLocation="http://sumo.dlr.de/xsd/det_e1_file.xsd">
    <interval begin="0.00" end="60.00" id="mainline_eval_0_0" nVehContrib="1" flow="60.00" occupancy="0.35" speed="23.58" length="5.00" nVehEntered="1"/>
    <interval begin="0.00" end="60.00" id="mainline_eval_0_1" nVehContrib="0" flow="0.00" occupancy="0.00" speed="-1.00" length="-1.00" nVehEntered="0"/>
    <interval begin="0.00" end="60.00" id="mainline_eval_0_2" nVehContrib="0" flow="0.00" occupancy="0.00" speed="-1.00" length="-1.00" nVehEntered="0"/>
    <interval begin="0.00" end="60.00" id="mainline_eval_1_0" nVehContrib="0" flow="0.00" occupancy="0.00" speed="-1.00" length="-1.00" nVehEntered="0"/>
    <interval begin="0.00" end="60.00" id="mainline_eval_1_1" nVehContrib="0" flow="0.00" occupancy="0.00" speed="-1.00" length="-1.00" nVehEntered="0"/>
    <interval begin="0.00" end="60.00" id="mainline_eval_1_2" nVehContrib="0" flow="0.00" occupancy="0.00" speed="-1.00" length="-1.00" nVehEntered="0"/>
    <interval begin="0.00" end="60.00" id="mainline_eval_2_0" nVehContrib="0" flow="0.00" occupancy="0.00" speed="-1.00" length="-1.00" nVehEntered="0"/>
    <interval begin="0.00" end="60.00" id="mainline_eval_2_1" nVehContrib="0" flow="0.00" occupancy="0.00" speed="-1.00" length="-1.00" nVehEntered="0"/>
    <interval begin="0.00" end="60.00" id="mainline_eval_2_2" nVehContrib="0" flow="0.00" occupancy="0.00" speed="-1.00" length="-1.00" nVehEntered="0"/>
    <interval begin="0.00" end="60.00" id="mainline_eval_3_0" nVehContrib="0" flow="0.00" occupancy="0.00" speed="-1.00" length="-1.00" nVehEntered="0"/>
    <interval begin="0.00" end="60.00" id="mainline_eval_3_1" nVehContrib="0" flow="0.00" occupancy="0.00" speed="-1.00" length="-1.00" nVehEntered="0"/>
    <interval begin="0.00" end="60.00" id="mainline_eval_3_2" nVehContrib="0" flow="0.00" occupancy="0.00" speed="-1.00" length="-1.00" nVehEntered="0"/>
    <interval begin="0.00" end="60.00" id="mainline_eval_3_3" nVehContrib="0" flow="0.00" occupancy="0.00" speed="-1.00" length="-1.00" nVehEntered="0"/>
    <interval begin="0.00" end="60.00" id="mainline_eval_4_0" nVehContrib="0" flow="0.00" occupancy="0.00" speed="-1.00" length="-1.00" nVehEntered="0"/>
    <interval begin="0.00" end="60.00" id="mainline_eval_4_1" nVehContrib="0" flow="0.00" occupancy="0.00" speed="-1.00" length="-1.00" nVehEntered="0"/>
    <interval begin="0.00" end="60.00" id="mainline_eval_4_2" nVehContrib="0" flow="0.00" occupancy="0.00" speed="-1.00" length="-1.00" nVehEntered="0"/>
    <interval begin="0.00" end="60.00" id="mainline_eval_4_3" nVehContrib="0" flow="0.00" occupancy="0.00" speed="-1.00" length="-1.00" nVehEntered="0"/>
    <interval begin="0.00" end="60.00" id="mainline_eval_5_0" nVehContrib="0" flow="0.00" occupancy="0.00" speed="-1.00" length="-1.00" nVehEntered="0"/>
    <interval begin="0.00" end="60.00" id="mainline_eval_5_1" nVehContrib="0" flow="0.00" occupancy="0.00" speed="-1.00" length="-1.00" nVehEntered="0"/>
    <interval begin="0.00" end="60.00" id="mainline_eval_5_2" nVehContrib="0" flow="0.00" occupancy="0.00" speed="-1.00" length="-1.00" nVehEntered="0"/>
    <interval begin="0.00" end="60.00" id="mainline_eval_6_0" nVehContrib="0" flow="0.00" occupancy="0.00" speed="-1.00" length="-1.00" nVehEntered="0"/>
    <interval begin="0.00" end="60.00" id="mainline_eval_6_1" nVehContrib="0" flow="0.00" occupancy="0.00" speed="-1.00" length="-1.00" nVehEntered="0"/>
    <interval begin="0.00" end="60.00" id="mainline_eval_6_2" nVehContrib="0" flow="0.00" occupancy="0.00" speed="-1.00" length="-1.00" nVehEntered="0"/>
    <interval begin="60.00" end="120.00" id="mainline_eval_0_0" nVehContrib="15" flow="900.00" occupancy="6.51" speed="19.38" length="5.00" nVehEntered="15"/>
    <interval begin="60.00" end="120.00" id="mainline_eval_0_1" nVehContrib="17" flow="1020.00" occupancy="7.11" speed="20.28" length="5.00" nVehEntered="17"/>
    <interval begin="60.00" end="120.00" id="mainline_eval_0_2" nVehContrib="22" flow="1320.00" occupancy="8.48" speed="21.63" length="5.00" nVehEntered="22"/>
    <interval begin="60.00" end="120.00" id="mainline_eval_1_0" nVehContrib="8" flow="480.00" occupancy="3.45" speed="20.95" length="5.00" nVehEntered="9"/>
    <interval begin="60.00" end="120.00" id="mainline_eval_1_1" nVehContrib="9" flow="540.00" occupancy="3.85" speed="19.93" length="5.00" nVehEntered="9"/>
    <interval begin="60.00" end="120.00" id="mainline_eval_1_2" nVehContrib="10" flow="600.00" occupancy="3.85" speed="21.70" length="5.00" nVehEntered="10"/>
    <interval begin="60.00" end="120.00" id="mainline_eval_2_0" nVehContrib="6" flow="360.00" occupancy="2.22" speed="22.60" length="5.00" nVehEntered="6"/>
    <interval begin="60.00" end="120.00" id="mainline_eval_2_1" nVehContrib="3" flow="180.00" occupancy="1.08" speed="23.33" length="5.00" nVehEntered="3"/>
    <interval begin="60.00" end="120.00" id="mainline_eval_2_2" nVehContrib="1" flow="60.00" occupancy="0.36" speed="23.14" length="5.00" nVehEntered="1"/>
    <interval begin="60.00" end="120.00" id="mainline_eval_3_0" nVehContrib="0" flow="0.00" occupancy="0.00" speed="-1.00" length="-1.00" nVehEntered="0"/>
    <interval begin="60.00" end="120.00" id="mainline_eval_3_1" nVehContrib="4" flow="240.00" occupancy="1.43" speed="23.31" length="5.00" nVehEntered="4"/>
    <interval begin="60.00" end="120.00" id="mainline_eval_3_2" nVehContrib="1" flow="60.00" occupancy="0.32" speed="25.73" length="5.00" nVehEntered="1"/>
    <interval begin="60.00" end="120.00" id="mainline_eval_3_3" nVehContrib="0" flow="0.00" occupancy="0.00" speed="-1.00" length="-1.00" nVehEntered="0"/>
    <interval begin="60.00" end="120.00" id="mainline_eval_4_0" nVehContrib="0" flow="0.00" occupancy="0.00" speed="-1.00" length="-1.00" nVehEntered="0"/>
    <interval begin="60.00" end="120.00" id="mainline_eval_4_1" nVehContrib="4" flow="240.00" occupancy="1.45" speed="23.00" length="5.00" nVehEntered="4"/>
    <interval begin="60.00" end="120.00" id="mainline_eval_4_2" nVehContrib="1" flow="60.00" occupancy="0.32" speed="26.03" length="5.00" nVehEntered="1"/>
    <interval begin="60.00" end="120.00" id="mainline_eval_4_3" nVehContrib="0" flow="0.00" occupancy="0.00" speed="-1.00" length="-1.00" nVehEntered="0"/>
    <interval begin="60.00" end="120.00" id="mainline_eval_5_0" nVehContrib="2" flow="120.00" occupancy="0.72" speed="23.24" length="5.00" nVehEntered="2"/>
    <interval begin="60.00" end="120.00" id="mainline_eval_5_1" nVehContrib="1" flow="60.00" occupancy="0.46" speed="26.15" length="5.00" nVehEntered="2"/>
    <interval begin="60.00" end="120.00" id="mainline_eval_5_2" nVehContrib="0" flow="0.00" occupancy="0.00" speed="-1.00" length="-1.00" nVehEntered="0"/>
    <interval begin="60.00" end="120.00" id="mainline_eval_6_0" nVehContrib="1" flow="60.00" occupancy="0.35" speed="24.05" length="5.00" nVehEntered="1"/>
    <interval begin="60.00" end="120.00" id="mainline_eval_6_1" nVehContrib="1" flow="60.00" occupancy="0.32" speed="25.69" length="5.00" nVehEntered="1"/>
    <interval begin="60.00" end="120.00" id="mainline_eval_6_2" nVehContrib="0" flow="0.00" occupancy="0.00" speed="-1.00" length="-1.00" nVehEntered="0"/>
    <interval begin="120.00" end="180.00" id="mainline_eval_0_0" nVehContrib="12" flow="720.00" occupancy="5.45" speed="18.36" length="5.00" nVehEntered="12"/>
    <interval begin="120.00" end="180.00" id="mainline_eval_0_1" nVehContrib="23" flow="1380.00" occupancy="9.63" speed="20.05" length="5.00" nVehEntered="23"/>
    <interval begin="120.00" end="180.00" id="mainline_eval_0_2" nVehContrib="25" flow="1500.00" occupancy="9.54" speed="21.87" length="5.00" nVehEntered="25"/>
    <interval begin="120.00" end="180.00" id="mainline_eval_1_0" nVehContrib="16" flow="960.00" occupancy="7.09" speed="18.35" length="5.00" nVehEntered="15"/>
    <interval begin="120.00" end="180.00" id="mainline_eval_1_1" nVehContrib="23" flow="1380.00" occupancy="9.82" speed="19.64" length="5.00" nVehEntered="24"/>
    <interval begin="120.00" end="180.00" id="mainline_eval_1_2" nVehContrib="32" flow="1920.00" occupancy="13.94" speed="20.71" length="5.00" nVehEntered="32"/>
    <interval begin="120.00" end="180.00" id="mainline_eval_2_0" nVehContrib="17" flow="1020.00" occupancy="7.62" speed="18.73" length="5.00" nVehEntered="17"/>
    <interval begin="120.00" end="180.00" id="mainline_eval_2_1" nVehContrib="21" flow="1260.00" occupancy="8.51" speed="20.67" length="5.00" nVehEntered="21"/>
    <interval begin="120.00" end="180.00" id="mainline_eval_2_2" nVehContrib="31" flow="1860.00" occupancy="12.08" speed="21.41" length="5.00" nVehEntered="31"/>
    <interval begin="120.00" end="180.00" id="mainline_eval_3_0" nVehContrib="5" flow="300.00" occupancy="3.84" speed="11.43" length="5.00" nVehEntered="5"/>
    <interval begin="120.00" end="180.00" id="mainline_eval_3_1" nVehContrib="19" flow="1140.00" occupancy="11.05" speed="15.40" length="5.00" nVehEntered="19"/>
    <interval begin="120.00" end="180.00" id="mainline_eval_3_2" nVehContrib="24" flow="1440.00" occupancy="9.59" speed="20.90" length="5.00" nVehEntered="24"/>
    <interval begin="120.00" end="180.00" id="mainline_eval_3_3" nVehContrib="27" flow="1620.00" occupancy="10.45" speed="21.54" length="5.00" nVehEntered="27"/>
    <interval begin="120.00" end="180.00" id="mainline_eval_4_0" nVehContrib="0" flow="0.00" occupancy="0.00" speed="-1.00" length="-1.00" nVehEntered="0"/>
    <interval begin="120.00" end="180.00" id="mainline_eval_4_1" nVehContrib="19" flow="1140.00" occupancy="10.83" speed="15.44" length="5.00" nVehEntered="19"/>
    <interval begin="120.00" end="180.00" id="mainline_eval_4_2" nVehContrib="25" flow="1500.00" occupancy="10.24" speed="20.53" length="5.00" nVehEntered="25"/>
    <interval begin="120.00" end="180.00" id="mainline_eval_4_3" nVehContrib="25" flow="1500.00" occupancy="9.79" speed="21.31" length="5.00" nVehEntered="25"/>
    <interval begin="120.00" end="180.00" id="mainline_eval_5_0" nVehContrib="15" flow="900.00" occupancy="8.34" speed="18.28" length="5.00" nVehEntered="16"/>
    <interval begin="120.00" end="180.00" id="mainline_eval_5_1" nVehContrib="19" flow="1140.00" occupancy="7.43" speed="20.96" length="5.00" nVehEntered="19"/>
    <interval begin="120.00" end="180.00" id="mainline_eval_5_2" nVehContrib="19" flow="1140.00" occupancy="7.37" speed="21.49" length="5.00" nVehEntered="19"/>
    <interval begin="120.00" end="180.00" id="mainline_eval_6_0" nVehContrib="13" flow="780.00" occupancy="5.55" speed="19.79" length="5.00" nVehEntered="13"/>
    <interval begin="120.00" end="180.00" id="mainline_eval_6_1" nVehContrib="17" flow="1020.00" occupancy="6.83" speed="20.83" length="5.00" nVehEntered="17"/>
    <interval begin="120.00" end="180.00" id="mainline_eval_6_2" nVehContrib="15" flow="900.00" occupancy="5.76" speed="21.74" length="5.00" nVehEntered="15"/>
    <interval begin="180.00" end="240.00" id="mainline_eval_0_0" nVehContrib="21" flow="1260.00" occupancy="11.27" speed="16.11" length="5.00" nVehEntered="22"/>
    <interval begin="180.00" end="240.00" id="mainline_eval_0_1" nVehContrib="31" flow="1860.00" occupancy="16.03" speed="16.25" length="5.00" nVehEntered="31"/>
    <interval begin="180.00" end="240.00" id="mainline_eval_0_2" nVehContrib="39" flow="2340.00" occupancy="16.11" speed="20.20" length="5.00" nVehEntered="39"/>
    <interval begin="180.00" end="240.00" id="mainline_eval_1_0" nVehContrib="20" flow="1200.00" occupancy="10.59" speed="15.87" length="5.00" nVehEntered="20"/>
    <interval begin="180.00" end="240.00" id="mainline_eval_1_1" nVehContrib="24" flow="1440.00" occupancy="10.47" speed="19.31" length="5.00" nVehEntered="24"/>
    <interval begin="180.00" end="240.00" id="mainline_eval_1_2" nVehContrib="34" flow="2040.00" occupancy="13.50" speed="21.00" length="5.00" nVehEntered="34"/>
    <interval begin="180.00" end="240.00" id="mainline_eval_2_0" nVehContrib="11" flow="660.00" occupancy="5.01" speed="18.40" length="5.00" nVehEntered="11"/>
    <interval begin="180.00" end="240.00" id="mainline_eval_2_1" nVehContrib="18" flow="1080.00" occupancy="7.33" speed="20.55" length="5.00" nVehEntered="18"/>
    <interval begin="180.00" end="240.00" id="mainline_eval_2_2" nVehContrib="27" flow="1620.00" occupancy="10.50" speed="21.46" length="5.00" nVehEntered="27"/>
    <interval begin="180.00" end="240.00" id="mainline_eval_3_0" nVehContrib="5" flow="300.00" occupancy="3.28" speed="12.75" length="5.00" nVehEntered="5"/>
    <interval begin="180.00" end="240.00" id="mainline_eval_3_1" nVehContrib="23" flow="1380.00" occupancy="16.15" speed="12.78" length="5.00" nVehEntered="23"/>
    <interval begin="180.00" end="240.00" id="mainline_eval_3_2" nVehContrib="21" flow="1260.00" occupancy="8.95" speed="19.66" length="5.00" nVehEntered="21"/>
    <interval begin="180.00" end="240.00" id="mainline_eval_3_3" nVehContrib="23" flow="1380.00" occupancy="8.97" speed="21.42" length="5.00" nVehEntered="23"/>
    <interval begin="180.00" end="240.00" id="mainline_eval_4_0" nVehContrib="0" flow="0.00" occupancy="0.00" speed="-1.00" length="-1.00" nVehEntered="1"/>
    <interval begin="180.00" end="240.00" id="mainline_eval_4_1" nVehContrib="24" flow="1440.00" occupancy="14.71" speed="15.11" length="5.00" nVehEntered="24"/>
    <interval begin="180.00" end="240.00" id="mainline_eval_4_2" nVehContrib="23" flow="1380.00" occupancy="10.14" speed="19.12" length="5.00" nVehEntered="24"/>
    <interval begin="180.00" end="240.00" id="mainline_eval_4_3" nVehContrib="27" flow="1620.00" occupancy="11.95" speed="20.97" length="5.00" nVehEntered="27"/>
    <interval begin="180.00" end="240.00" id="mainline_eval_5_0" nVehContrib="27" flow="1620.00" occupancy="11.50" speed="19.25" length="5.00" nVehEntered="26"/>
    <interval begin="180.00" end="240.00" id="mainline_eval_5_1" nVehContrib="27" flow="1620.00" occupancy="11.00" speed="20.56" length="5.00" nVehEntered="27"/>
    <interval begin="180.00" end="240.00" id="mainline_eval_5_2" nVehContrib="29" flow="1740.00" occupancy="11.21" speed="21.58" length="5.00" nVehEntered="29"/>
    <interval begin="180.00" end="240.00" id="mainline_eval_6_0" nVehContrib="30" flow="1800.00" occupancy="13.55" speed="18.58" length="5.00" nVehEntered="30"/>
    <interval begin="180.00" end="240.00" id="mainline_eval_6_1" nVehContrib="29" flow="1740.00" occupancy="11.89" speed="20.38" length="5.00" nVehEntered="29"/>
    <interval begin="180.00" end="240.00" id="mainline_eval_6_2" nVehContrib="30" flow="1800.00" occupancy="11.74" speed="21.31" length="5.00" nVehEntered="30"/>
    <interval begin="240.00" end="300.00" id="mainline_eval_0_0" nVehContrib="15" flow="900.00" occupancy="6.55" speed="18.28" length="5.00" nVehEntered="14"/>
    <interval begin="240.00" end="300.00" id="mainline_eval_0_1" nVehContrib="29" flow="1740.00" occupancy="12.47" speed="19.49" length="5.00" nVehEntered="29"/>
    <interval begin="240.00" end="300.00" id="mainline_eval_0_2" nVehContrib="29" flow="1740.00" occupancy="11.52" speed="21.02" length="5.00" nVehEntered="29"/>
    <interval begin="240.00" end="300.00" id="mainline_eval_1_0" nVehContrib="17" flow="1020.00" occupancy="7.73" speed="18.43" length="5.00" nVehEntered="17"/>
    <interval begin="240.00" end="300.00" id="mainline_eval_1_1" nVehContrib="29" flow="1740.00" occupancy="12.99" speed="19.23" length="5.00" nVehEntered="30"/>
    <interval begin="240.00" end="300.00" id="mainline_eval_1_2" nVehContrib="34" flow="2040.00" occupancy="14.13" speed="20.25" length="5.00" nVehEntered="35"/>
    <interval begin="240.00" end="300.00" id="mainline_eval_2_0" nVehContrib="24" flow="1440.00" occupancy="12.23" speed="16.60" length="5.00" nVehEntered="24"/>
    <interval begin="240.00" end="300.00" id="mainline_eval_2_1" nVehContrib="32" flow="1920.00" occupancy="14.37" speed="18.63" length="5.00" nVehEntered="32"/>
    <interval begin="240.00" end="300.00" id="mainline_eval_2_2" nVehContrib="39" flow="2340.00" occupancy="16.09" speed="20.25" length="5.00" nVehEntered="39"/>
    <interval begin="240.00" end="300.00" id="mainline_eval_3_0" nVehContrib="5" flow="300.00" occupancy="7.54" speed="8.07" length="5.00" nVehEntered="7"/>
    <interval begin="240.00" end="300.00" id="mainline_eval_3_1" nVehContrib="20" flow="1200.00" occupancy="26.52" speed="12.58" length="5.00" nVehEntered="21"/>
    <interval begin="240.00" end="300.00" id="mainline_eval_3_2" nVehContrib="34" flow="2040.00" occupancy="16.20" speed="17.76" length="5.00" nVehEntered="34"/>
    <interval begin="240.00" end="300.00" id="mainline_eval_3_3" nVehContrib="39" flow="2340.00" occupancy="16.70" speed="19.69" length="5.00" nVehEntered="39"/>
    <interval begin="240.00" end="300.00" id="mainline_eval_4_0" nVehContrib="2" flow="120.00" occupancy="1.52" speed="11.65" length="5.00" nVehEntered="2"/>
    <interval begin="240.00" end="300.00" id="mainline_eval_4_1" nVehContrib="22" flow="1320.00" occupancy="14.75" speed="13.49" length="5.00" nVehEntered="22"/>
    <interval begin="240.00" end="300.00" id="mainline_eval_4_2" nVehContrib="35" flow="2100.00" occupancy="15.73" speed="18.66" length="5.00" nVehEntered="35"/>
    <interval begin="240.00" end="300.00" id="mainline_eval_4_3" nVehContrib="39" flow="2340.00" occupancy="16.57" speed="19.80" length="5.00" nVehEntered="39"/>
    <interval begin="240.00" end="300.00" id="mainline_eval_5_0" nVehContrib="21" flow="1260.00" occupancy="10.73" speed="16.54" length="5.00" nVehEntered="21"/>
    <interval begin="240.00" end="300.00" id="mainline_eval_5_1" nVehContrib="30" flow="1800.00" occupancy="12.81" speed="19.62" length="5.00" nVehEntered="30"/>
    <interval begin="240.00" end="300.00" id="mainline_eval_5_2" nVehContrib="36" flow="2160.00" occupancy="14.39" speed="20.91" length="5.00" nVehEntered="36"/>
    <interval begin="240.00" end="300.00" id="mainline_eval_6_0" nVehContrib="17" flow="1020.00" occupancy="8.69" speed="16.54" length="5.00" nVehEntered="17"/>
    <interval begin="240.00" end="300.00" id="mainline_eval_6_1" nVehContrib="28" flow="1680.00" occupancy="12.08" speed="19.43" length="5.00" nVehEntered="28"/>
    <interval begin="240.00" end="300.00" id="mainline_eval_6_2" nVehContrib="36" flow="2160.00" occupancy="14.38" speed="20.89" length="5.00" nVehEntered="36"/>
    <interval begin="300.00" end="360.00" id="mainline_eval_0_0" nVehContrib="18" flow="1080.00" occupancy="8.38" speed="17.97" length="5.00" nVehEntered="19"/>
    <interval begin="300.00" end="360.00" id="mainline_eval_0_1" nVehContrib="24" flow="1440.00" occupancy="10.82" speed="18.52" length="5.00" nVehEntered="24"/>
    <interval begin="300.00" end="360.00" id="mainline_eval_0_2" nVehContrib="32" flow="1920.00" occupancy="13.05" speed="20.52" length="5.00" nVehEntered="32"/>
    <interval begin="300.00" end="360.00" id="mainline_eval_1_0" nVehContrib="18" flow="1080.00" occupancy="9.89" speed="15.34" length="5.00" nVehEntered="19"/>
    <interval begin="300.00" end="360.00" id="mainline_eval_1_1" nVehContrib="21" flow="1260.00" occupancy="13.84" speed="13.48" length="5.00" nVehEntered="20"/>
    <interval begin="300.00" end="360.00" id="mainline_eval_1_2" nVehContrib="37" flow="2220.00" occupancy="14.72" speed="20.83" length="5.00" nVehEntered="36"/>
    <interval begin="300.00" end="360.00" id="mainline_eval_2_0" nVehContrib="13" flow="780.00" occupancy="7.15" speed="15.30" length="5.00" nVehEntered="13"/>
    <interval begin="300.00" end="360.00" id="mainline_eval_2_1" nVehContrib="20" flow="1200.00" occupancy="12.39" speed="13.47" length="5.00" nVehEntered="20"/>
    <interval begin="300.00" end="360.00" id="mainline_eval_2_2" nVehContrib="35" flow="2100.00" occupancy="14.23" speed="20.51" length="5.00" nVehEntered="35"/>
    <interval begin="300.00" end="360.00" id="mainline_eval_3_0" nVehContrib="11" flow="660.00" occupancy="7.91" speed="11.74" length="5.00" nVehEntered="13"/>
    <interval begin="300.00" end="360.00" id="mainline_eval_3_1" nVehContrib="20" flow="1200.00" occupancy="31.59" speed="5.69" length="5.00" nVehEntered="19"/>
    <interval begin="300.00" end="360.00" id="mainline_eval_3_2" nVehContrib="25" flow="1500.00" occupancy="20.32" speed="11.21" length="5.00" nVehEntered="25"/>
    <interval begin="300.00" end="360.00" id="mainline_eval_3_3" nVehContrib="38" flow="2280.00" occupancy="16.25" speed="19.65" length="5.00" nVehEntered="38"/>
    <interval begin="300.00" end="360.00" id="mainline_eval_4_0" nVehContrib="6" flow="360.00" occupancy="4.17" speed="12.50" length="5.00" nVehEntered="7"/>
    <interval begin="300.00" end="360.00" id="mainline_eval_4_1" nVehContrib="24" flow="1440.00" occupancy="21.17" speed="10.34" length="5.00" nVehEntered="24"/>
    <interval begin="300.00" end="360.00" id="mainline_eval_4_2" nVehContrib="27" flow="1620.00" occupancy="17.83" speed="13.60" length="5.00" nVehEntered="27"/>
    <interval begin="300.00" end="360.00" id="mainline_eval_4_3" nVehContrib="38" flow="2280.00" occupancy="16.77" speed="19.15" length="5.00" nVehEntered="38"/>
    <interval begin="300.00" end="360.00" id="mainline_eval_5_0" nVehContrib="30" flow="1800.00" occupancy="13.88" speed="18.12" length="5.00" nVehEntered="31"/>
    <interval begin="300.00" end="360.00" id="mainline_eval_5_1" nVehContrib="28" flow="1680.00" occupancy="13.70" speed="18.29" length="5.00" nVehEntered="28"/>
    <interval begin="300.00" end="360.00" id="mainline_eval_5_2" nVehContrib="39" flow="2340.00" occupancy="17.03" speed="19.58" length="5.00" nVehEntered="40"/>
    <interval begin="300.00" end="360.00" id="mainline_eval_6_0" nVehContrib="31" flow="1860.00" occupancy="14.38" speed="18.12" length="5.00" nVehEntered="31"/>
    <interval begin="300.00" end="360.00" id="mainline_eval_6_1" nVehContrib="29" flow="1740.00" occupancy="13.03" speed="18.62" length="5.00" nVehEntered="29"/>
    <interval begin="300.00" end="360.00" id="mainline_eval_6_2" nVehContrib="39" flow="2340.00" occupancy="15.95" speed="20.40" length="5.00" nVehEntered="39"/>
