<?xml version="1.0" encoding="UTF-8"?>

<!-- generated on 02/24/19 20:40:09 by Eclipse SUMO Version 1.0.1
<configuration xmlns:xsi="http://www.w3.org/2001/XMLSchema-instance" xsi:noNamespaceSchemaLocation="http://sumo.dlr.de/xsd/sumoConfiguration.xsd">

    <input>
        <net-file value="./project/ramp.net.xml"/>
        <route-files value="./project/ramp.rou.xml"/>
        <additional-files value="./project/ramp.add.xml"/>
    </input>

    <time>
        <begin value="0"/>
    </time>

    <report>
        <verbose value="true"/>
        <no-step-log value="true"/>
    </report>

    <traci_server>
        <remote-port value="59151"/>
    </traci_server>

    <random_number>
        <seed value="1469808125"/>
    </random_number>

    <gui_only>
        <quit-on-end value="true"/>
        <start value="true"/>
    </gui_only>

</configuration>
-->

<detector xmlns:xsi="http://www.w3.org/2001/XMLSchema-instance" xsi:noNamespaceSchemaLocation="http://sumo.dlr.de/xsd/det_e1_file.xsd">
    <interval begin="0.00" end="60.00" id="mainline_eval_0_0" nVehContrib="0" flow="0.00" occupancy="0.27" speed="-1.00" length="-1.00" nVehEntered="1"/>
    <interval begin="0.00" end="60.00" id="mainline_eval_0_1" nVehContrib="1" flow="60.00" occupancy="0.31" speed="26.84" length="5.00" nVehEntered="1"/>
    <interval begin="0.00" end="60.00" id="mainline_eval_0_2" nVehContrib="0" flow="0.00" occupancy="0.00" speed="-1.00" length="-1.00" nVehEntered="0"/>
    <interval begin="0.00" end="60.00" id="mainline_eval_1_0" nVehContrib="0" flow="0.00" occupancy="0.00" speed="-1.00" length="-1.00" nVehEntered="0"/>
    <interval begin="0.00" end="60.00" id="mainline_eval_1_1" nVehContrib="0" flow="0.00" occupancy="0.00" speed="-1.00" length="-1.00" nVehEntered="0"/>
    <interval begin="0.00" end="60.00" id="mainline_eval_1_2" nVehContrib="0" flow="0.00" occupancy="0.00" speed="-1.00" length="-1.00" nVehEntered="0"/>
    <interval begin="0.00" end="60.00" id="mainline_eval_2_0" nVehContrib="0" flow="0.00" occupancy="0.00" speed="-1.00" length="-1.00" nVehEntered="0"/>
    <interval begin="0.00" end="60.00" id="mainline_eval_2_1" nVehContrib="0" flow="0.00" occupancy="0.00" speed="-1.00" length="-1.00" nVehEntered="0"/>
    <interval begin="0.00" end="60.00" id="mainline_eval_2_2" nVehContrib="0" flow="0.00" occupancy="0.00" speed="-1.00" length="-1.00" nVehEntered="0"/>
    <interval begin="0.00" end="60.00" id="mainline_eval_3_0" nVehContrib="0" flow="0.00" occupancy="0.00" speed="-1.00" length="-1.00" nVehEntered="0"/>
    <interval begin="0.00" end="60.00" id="mainline_eval_3_1" nVehContrib="0" flow="0.00" occupancy="0.00" speed="-1.00" length="-1.00" nVehEntered="0"/>
    <interval begin="0.00" end="60.00" id="mainline_eval_3_2" nVehContrib="0" flow="0.00" occupancy="0.00" speed="-1.00" length="-1.00" nVehEntered="0"/>
    <interval begin="0.00" end="60.00" id="mainline_eval_3_3" nVehContrib="0" flow="0.00" occupancy="0.00" speed="-1.00" length="-1.00" nVehEntered="0"/>
    <interval begin="0.00" end="60.00" id="mainline_eval_4_0" nVehContrib="0" flow="0.00" occupancy="0.00" speed="-1.00" length="-1.00" nVehEntered="0"/>
    <interval begin="0.00" end="60.00" id="mainline_eval_4_1" nVehContrib="0" flow="0.00" occupancy="0.00" speed="-1.00" length="-1.00" nVehEntered="0"/>
    <interval begin="0.00" end="60.00" id="mainline_eval_4_2" nVehContrib="0" flow="0.00" occupancy="0.00" speed="-1.00" length="-1.00" nVehEntered="0"/>
    <interval begin="0.00" end="60.00" id="mainline_eval_4_3" nVehContrib="0" flow="0.00" occupancy="0.00" speed="-1.00" length="-1.00" nVehEntered="0"/>
    <interval begin="0.00" end="60.00" id="mainline_eval_5_0" nVehContrib="0" flow="0.00" occupancy="0.00" speed="-1.00" length="-1.00" nVehEntered="0"/>
    <interval begin="0.00" end="60.00" id="mainline_eval_5_1" nVehContrib="0" flow="0.00" occupancy="0.00" speed="-1.00" length="-1.00" nVehEntered="0"/>
    <interval begin="0.00" end="60.00" id="mainline_eval_5_2" nVehContrib="0" flow="0.00" occupancy="0.00" speed="-1.00" length="-1.00" nVehEntered="0"/>
    <interval begin="0.00" end="60.00" id="mainline_eval_6_0" nVehContrib="0" flow="0.00" occupancy="0.00" speed="-1.00" length="-1.00" nVehEntered="0"/>
    <interval begin="0.00" end="60.00" id="mainline_eval_6_1" nVehContrib="0" flow="0.00" occupancy="0.00" speed="-1.00" length="-1.00" nVehEntered="0"/>
    <interval begin="0.00" end="60.00" id="mainline_eval_6_2" nVehContrib="0" flow="0.00" occupancy="0.00" speed="-1.00" length="-1.00" nVehEntered="0"/>
    <interval begin="60.00" end="120.00" id="mainline_eval_0_0" nVehContrib="14" flow="840.00" occupancy="6.08" speed="18.67" length="5.00" nVehEntered="13"/>
    <interval begin="60.00" end="120.00" id="mainline_eval_0_1" nVehContrib="19" flow="1140.00" occupancy="8.69" speed="18.80" length="5.00" nVehEntered="20"/>
    <interval begin="60.00" end="120.00" id="mainline_eval_0_2" nVehContrib="24" flow="1440.00" occupancy="9.21" speed="21.74" length="5.00" nVehEntered="24"/>
    <interval begin="60.00" end="120.00" id="mainline_eval_1_0" nVehContrib="8" flow="480.00" occupancy="3.22" speed="20.88" length="5.00" nVehEntered="8"/>
    <interval begin="60.00" end="120.00" id="mainline_eval_1_1" nVehContrib="11" flow="660.00" occupancy="4.21" speed="21.97" length="5.00" nVehEntered="11"/>
    <interval begin="60.00" end="120.00" id="mainline_eval_1_2" nVehContrib="10" flow="600.00" occupancy="3.68" speed="22.66" length="5.00" nVehEntered="10"/>
    <interval begin="60.00" end="120.00" id="mainline_eval_2_0" nVehContrib="5" flow="300.00" occupancy="1.81" speed="23.27" length="5.00" nVehEntered="5"/>
    <interval begin="60.00" end="120.00" id="mainline_eval_2_1" nVehContrib="3" flow="180.00" occupancy="1.08" speed="23.19" length="5.00" nVehEntered="3"/>
    <interval begin="60.00" end="120.00" id="mainline_eval_2_2" nVehContrib="1" flow="60.00" occupancy="0.36" speed="23.26" length="5.00" nVehEntered="1"/>
    <interval begin="60.00" end="120.00" id="mainline_eval_3_0" nVehContrib="0" flow="0.00" occupancy="0.00" speed="-1.00" length="-1.00" nVehEntered="0"/>
    <interval begin="60.00" end="120.00" id="mainline_eval_3_1" nVehContrib="5" flow="300.00" occupancy="1.72" speed="24.34" length="5.00" nVehEntered="5"/>
    <interval begin="60.00" end="120.00" id="mainline_eval_3_2" nVehContrib="0" flow="0.00" occupancy="0.00" speed="-1.00" length="-1.00" nVehEntered="0"/>
    <interval begin="60.00" end="120.00" id="mainline_eval_3_3" nVehContrib="0" flow="0.00" occupancy="0.00" speed="-1.00" length="-1.00" nVehEntered="0"/>
    <interval begin="60.00" end="120.00" id="mainline_eval_4_0" nVehContrib="0" flow="0.00" occupancy="0.00" speed="-1.00" length="-1.00" nVehEntered="0"/>
    <interval begin="60.00" end="120.00" id="mainline_eval_4_1" nVehContrib="5" flow="300.00" occupancy="1.73" speed="24.23" length="5.00" nVehEntered="5"/>
    <interval begin="60.00" end="120.00" id="mainline_eval_4_2" nVehContrib="0" flow="0.00" occupancy="0.00" speed="-1.00" length="-1.00" nVehEntered="0"/>
    <interval begin="60.00" end="120.00" id="mainline_eval_4_3" nVehContrib="0" flow="0.00" occupancy="0.00" speed="-1.00" length="-1.00" nVehEntered="0"/>
    <interval begin="60.00" end="120.00" id="mainline_eval_5_0" nVehContrib="4" flow="240.00" occupancy="1.38" speed="24.33" length="5.00" nVehEntered="4"/>
    <interval begin="60.00" end="120.00" id="mainline_eval_5_1" nVehContrib="0" flow="0.00" occupancy="0.00" speed="-1.00" length="-1.00" nVehEntered="0"/>
    <interval begin="60.00" end="120.00" id="mainline_eval_5_2" nVehContrib="0" flow="0.00" occupancy="0.00" speed="-1.00" length="-1.00" nVehEntered="0"/>
    <interval begin="60.00" end="120.00" id="mainline_eval_6_0" nVehContrib="2" flow="120.00" occupancy="0.65" speed="25.64" length="5.00" nVehEntered="2"/>
    <interval begin="60.00" end="120.00" id="mainline_eval_6_1" nVehContrib="0" flow="0.00" occupancy="0.00" speed="-1.00" length="-1.00" nVehEntered="0"/>
    <interval begin="60.00" end="120.00" id="mainline_eval_6_2" nVehContrib="0" flow="0.00" occupancy="0.00" speed="-1.00" length="-1.00" nVehEntered="0"/>
    <interval begin="120.00" end="180.00" id="mainline_eval_0_0" nVehContrib="17" flow="1020.00" occupancy="7.27" speed="19.51" length="5.00" nVehEntered="17"/>
    <interval begin="120.00" end="180.00" id="mainline_eval_0_1" nVehContrib="25" flow="1500.00" occupancy="10.28" speed="20.10" length="5.00" nVehEntered="24"/>
    <interval begin="120.00" end="180.00" id="mainline_eval_0_2" nVehContrib="31" flow="1860.00" occupancy="12.28" speed="21.09" length="5.00" nVehEntered="31"/>
    <interval begin="120.00" end="180.00" id="mainline_eval_1_0" nVehContrib="16" flow="960.00" occupancy="7.24" speed="18.52" length="5.00" nVehEntered="16"/>
    <interval begin="120.00" end="180.00" id="mainline_eval_1_1" nVehContrib="28" flow="1680.00" occupancy="11.95" speed="19.62" length="5.00" nVehEntered="28"/>
    <interval begin="120.00" end="180.00" id="mainline_eval_1_2" nVehContrib="30" flow="1800.00" occupancy="12.09" speed="20.73" length="5.00" nVehEntered="30"/>
    <interval begin="120.00" end="180.00" id="mainline_eval_2_0" nVehContrib="16" flow="960.00" occupancy="7.42" speed="18.27" length="5.00" nVehEntered="17"/>
    <interval begin="120.00" end="180.00" id="mainline_eval_2_1" nVehContrib="26" flow="1560.00" occupancy="10.70" speed="20.38" length="5.00" nVehEntered="26"/>
    <interval begin="120.00" end="180.00" id="mainline_eval_2_2" nVehContrib="26" flow="1560.00" occupancy="9.71" speed="22.33" length="5.00" nVehEntered="26"/>
    <interval begin="120.00" end="180.00" id="mainline_eval_3_0" nVehContrib="3" flow="180.00" occupancy="2.03" speed="12.34" length="5.00" nVehEntered="5"/>
    <interval begin="120.00" end="180.00" id="mainline_eval_3_1" nVehContrib="18" flow="1080.00" occupancy="14.65" speed="13.40" length="5.00" nVehEntered="19"/>
    <interval begin="120.00" end="180.00" id="mainline_eval_3_2" nVehContrib="23" flow="1380.00" occupancy="12.13" speed="18.94" length="5.00" nVehEntered="23"/>
    <interval begin="120.00" end="180.00" id="mainline_eval_3_3" nVehContrib="26" flow="1560.00" occupancy="9.80" speed="22.17" length="5.00" nVehEntered="26"/>
    <interval begin="120.00" end="180.00" id="mainline_eval_4_0" nVehContrib="0" flow="0.00" occupancy="0.00" speed="-1.00" length="-1.00" nVehEntered="0"/>
    <interval begin="120.00" end="180.00" id="mainline_eval_4_1" nVehContrib="18" flow="1080.00" occupancy="8.95" speed="17.09" length="5.00" nVehEntered="18"/>
    <interval begin="120.00" end="180.00" id="mainline_eval_4_2" nVehContrib="21" flow="1260.00" occupancy="8.88" speed="19.87" length="5.00" nVehEntered="21"/>
    <interval begin="120.00" end="180.00" id="mainline_eval_4_3" nVehContrib="25" flow="1500.00" occupancy="9.37" speed="22.27" length="5.00" nVehEntered="25"/>
    <interval begin="120.00" end="180.00" id="mainline_eval_5_0" nVehContrib="12" flow="720.00" occupancy="5.19" speed="19.41" length="5.00" nVehEntered="12"/>
    <interval begin="120.00" end="180.00" id="mainline_eval_5_1" nVehContrib="16" flow="960.00" occupancy="6.57" speed="20.40" length="5.00" nVehEntered="16"/>
    <interval begin="120.00" end="180.00" id="mainline_eval_5_2" nVehContrib="20" flow="1200.00" occupancy="7.49" speed="22.29" length="5.00" nVehEntered="20"/>
    <interval begin="120.00" end="180.00" id="mainline_eval_6_0" nVehContrib="11" flow="660.00" occupancy="4.59" speed="20.20" length="5.00" nVehEntered="11"/>
    <interval begin="120.00" end="180.00" id="mainline_eval_6_1" nVehContrib="13" flow="780.00" occupancy="5.28" speed="20.65" length="5.00" nVehEntered="13"/>
    <interval begin="120.00" end="180.00" id="mainline_eval_6_2" nVehContrib="17" flow="1020.00" occupancy="6.27" speed="22.61" length="5.00" nVehEntered="17"/>
    <interval begin="180.00" end="240.00" id="mainline_eval_0_0" nVehContrib="15" flow="900.00" occupancy="6.79" speed="18.46" length="5.00" nVehEntered="15"/>
    <interval begin="180.00" end="240.00" id="mainline_eval_0_1" nVehContrib="22" flow="1320.00" occupancy="9.37" speed="20.28" length="5.00" nVehEntered="23"/>
    <interval begin="180.00" end="240.00" id="mainline_eval_0_2" nVehContrib="29" flow="1740.00" occupancy="11.08" speed="21.87" length="5.00" nVehEntered="29"/>
    <interval begin="180.00" end="240.00" id="mainline_eval_1_0" nVehContrib="16" flow="960.00" occupancy="7.24" speed="18.55" length="5.00" nVehEntered="16"/>
    <interval begin="180.00" end="240.00" id="mainline_eval_1_1" nVehContrib="22" flow="1320.00" occupancy="8.78" speed="20.90" length="5.00" nVehEntered="22"/>
    <interval begin="180.00" end="240.00" id="mainline_eval_1_2" nVehContrib="34" flow="2040.00" occupancy="13.11" speed="21.66" length="5.00" nVehEntered="34"/>
    <interval begin="180.00" end="240.00" id="mainline_eval_2_0" nVehContrib="15" flow="900.00" occupancy="6.73" speed="18.59" length="5.00" nVehEntered="14"/>
    <interval begin="180.00" end="240.00" id="mainline_eval_2_1" nVehContrib="22" flow="1320.00" occupancy="9.02" speed="20.35" length="5.00" nVehEntered="22"/>
    <interval begin="180.00" end="240.00" id="mainline_eval_2_2" nVehContrib="36" flow="2160.00" occupancy="14.22" speed="21.14" length="5.00" nVehEntered="36"/>
    <interval begin="180.00" end="240.00" id="mainline_eval_3_0" nVehContrib="7" flow="420.00" occupancy="5.40" speed="11.42" length="5.00" nVehEntered="7"/>
    <interval begin="180.00" end="240.00" id="mainline_eval_3_1" nVehContrib="25" flow="1500.00" occupancy="15.79" speed="14.11" length="5.00" nVehEntered="26"/>
    <interval begin="180.00" end="240.00" id="mainline_eval_3_2" nVehContrib="25" flow="1500.00" occupancy="12.13" speed="18.22" length="5.00" nVehEntered="26"/>
    <interval begin="180.00" end="240.00" id="mainline_eval_3_3" nVehContrib="38" flow="2280.00" occupancy="15.44" speed="20.87" length="5.00" nVehEntered="39"/>
    <interval begin="180.00" end="240.00" id="mainline_eval_4_0" nVehContrib="3" flow="180.00" occupancy="5.25" speed="5.90" length="5.00" nVehEntered="4"/>
    <interval begin="180.00" end="240.00" id="mainline_eval_4_1" nVehContrib="24" flow="1440.00" occupancy="17.30" speed="12.98" length="5.00" nVehEntered="24"/>
    <interval begin="180.00" end="240.00" id="mainline_eval_4_2" nVehContrib="32" flow="1920.00" occupancy="15.79" speed="17.25" length="5.00" nVehEntered="32"/>
    <interval begin="180.00" end="240.00" id="mainline_eval_4_3" nVehContrib="38" flow="2280.00" occupancy="15.02" speed="21.11" length="5.00" nVehEntered="38"/>
    <interval begin="180.00" end="240.00" id="mainline_eval_5_0" nVehContrib="26" flow="1560.00" occupancy="11.68" speed="18.67" length="5.00" nVehEntered="26"/>
    <interval begin="180.00" end="240.00" id="mainline_eval_5_1" nVehContrib="32" flow="1920.00" occupancy="13.69" speed="19.51" length="5.00" nVehEntered="32"/>
    <interval begin="180.00" end="240.00" id="mainline_eval_5_2" nVehContrib="37" flow="2220.00" occupancy="15.12" speed="20.42" length="5.00" nVehEntered="37"/>
    <interval begin="180.00" end="240.00" id="mainline_eval_6_0" nVehContrib="26" flow="1560.00" occupancy="11.93" speed="18.29" length="5.00" nVehEntered="26"/>
    <interval begin="180.00" end="240.00" id="mainline_eval_6_1" nVehContrib="34" flow="2040.00" occupancy="14.88" speed="19.10" length="5.00" nVehEntered="34"/>
    <interval begin="180.00" end="240.00" id="mainline_eval_6_2" nVehContrib="37" flow="2220.00" occupancy="15.03" speed="20.55" length="5.00" nVehEntered="37"/>
    <interval begin="240.00" end="300.00" id="mainline_eval_0_0" nVehContrib="18" flow="1080.00" occupancy="8.32" speed="18.28" length="5.00" nVehEntered="18"/>
    <interval begin="240.00" end="300.00" id="mainline_eval_0_1" nVehContrib="31" flow="1860.00" occupancy="12.47" speed="20.27" length="5.00" nVehEntered="30"/>
    <interval begin="240.00" end="300.00" id="mainline_eval_0_2" nVehContrib="37" flow="2220.00" occupancy="14.56" speed="21.26" length="5.00" nVehEntered="38"/>
    <interval begin="240.00" end="300.00" id="mainline_eval_1_0" nVehContrib="16" flow="960.00" occupancy="7.50" speed="17.98" length="5.00" nVehEntered="16"/>
    <interval begin="240.00" end="300.00" id="mainline_eval_1_1" nVehContrib="28" flow="1680.00" occupancy="13.14" speed="19.71" length="5.00" nVehEntered="28"/>
    <interval begin="240.00" end="300.00" id="mainline_eval_1_2" nVehContrib="35" flow="2100.00" occupancy="13.47" speed="21.72" length="5.00" nVehEntered="36"/>
    <interval begin="240.00" end="300.00" id="mainline_eval_2_0" nVehContrib="16" flow="960.00" occupancy="7.08" speed="18.87" length="5.00" nVehEntered="16"/>
    <interval begin="240.00" end="300.00" id="mainline_eval_2_1" nVehContrib="23" flow="1380.00" occupancy="9.86" speed="19.47" length="5.00" nVehEntered="23"/>
    <interval begin="240.00" end="300.00" id="mainline_eval_2_2" nVehContrib="34" flow="2040.00" occupancy="13.63" speed="20.81" length="5.00" nVehEntered="34"/>
    <interval begin="240.00" end="300.00" id="mainline_eval_3_0" nVehContrib="6" flow="360.00" occupancy="5.98" speed="9.35" length="5.00" nVehEntered="8"/>
    <interval begin="240.00" end="300.00" id="mainline_eval_3_1" nVehContrintrib="19" flow="1140.00" occupancy="28.56" speed="7.30" length="5.00" nVehEntered="19"/>
    <interval begin="240.00" end="300.00" id="mainline_eval_3_2" nVehContrib="31" flow="1860.00" occupancy="28.29" speed="10.69" length="5.00" nVehEntered="30"/>
    <interval begin="240.00" end="300.00" id="mainline_eval_3_3" nVehContrib="41" flow="2460.00" occupancy="17.24" speed="19.87" length="5.00" nVehEntered="41"/>
    <interval begin="240.00" end="300.00" id="mainline_eval_4_0" nVehContrib="4" flow="240.00" occupancy="6.25" speed="7.14" length="5.00" nVehEntered="3"/>
    <interval begin="240.00" end="300.00" id="mainline_eval_4_1" nVehContrib="22" flow="1320.00" occupancy="32.59" speed="6.35" length="5.00" nVehEntered="22"/>
    <interval begin="240.00" end="300.00" id="mainline_eval_4_2" nVehContrib="31" flow="1860.00" occupancy="26.57" speed="12.98" length="5.00" nVehEntered="32"/>
    <interval begin="240.00" end="300.00" id="mainline_eval_4_3" nVehContrib="40" flow="2400.00" occupancy="17.98" speed="19.77" length="5.00" nVehEntered="40"/>
    <interval begin="240.00" end="300.00" id="mainline_eval_5_0" nVehContrib="26" flow="1560.00" occupancy="11.98" speed="18.27" length="5.00" nVehEntered="26"/>
    <interval begin="240.00" end="300.00" id="mainline_eval_5_1" nVehContrib="31" flow="1860.00" occupancy="13.36" speed="19.36" length="5.00" nVehEntered="31"/>
    <interval begin="240.00" end="300.00" id="mainline_eval_5_2" nVehContrib="40" flow="2400.00" occupancy="16.34" speed="20.42" length="5.00" nVehEntered="40"/>
    <interval begin="240.00" end="300.00" id="mainline_eval_6_0" nVehContrib="27" flow="1620.00" occupancy="12.29" speed="18.25" length="5.00" nVehEntered="27"/>
    <interval begin="240.00" end="300.00" id="mainline_eval_6_1" nVehContrib="31" flow="1860.00" occupancy="13.33" speed="19.43" length="5.00" nVehEntered="31"/>
    <interval begin="240.00" end="300.00" id="mainline_eval_6_2" nVehContrib="40" flow="2400.00" occupancy="16.15" speed="20.66" length="5.00" nVehEntered="40"/>
<interval begin="300.00" end="360.00" id="mainline_eval_0_0" nVehContrib="19" flow="1140.00" occupancy="8.38" speed="18.93" length="5.00" nVehEntered="19"/>
    <interval begin="300.00" end="360.00" id="mainline_eval_0_1" nVehContrib="28" flow="1680.00" occupancy="12.07" speed="19.37" length="5.00" nVehEntered="28"/>
    <interval begin="300.00" end="360.00" id="mainline_eval_0_2" nVehContrib="34" flow="2040.00" occupancy="14.28" speed="19.86" length="5.00" nVehEntered="33"/>
    <interval begin="300.00" end="360.00" id="mainline_eval_1_0" nVehContrib="15" flow="900.00" occupancy="9.69" speed="13.71" length="5.00" nVehEntered="15"/>
    <interval begin="300.00" end="360.00" id="mainline_eval_1_1" nVehContrib="22" flow="1320.00" occupancy="13.08" speed="15.04" length="5.00" nVehEntered="22"/>
    <interval begin="300.00" end="360.00" id="mainline_eval_1_2" nVehContrib="30" flow="1800.00" occupancy="16.96" speed="15.89" length="5.00" nVehEntered="30"/>
    <interval begin="300.00" end="360.00" id="mainline_eval_2_0" nVehContrib="16" flow="960.00" occupancy="9.78" speed="14.53" length="5.00" nVehEntered="16"/>
    <interval begin="300.00" end="360.00" id="mainline_eval_2_1" nVehContrib="26" flow="1560.00" occupancy="14.01" speed="16.59" length="5.00" nVehEntered="26"/>
    <interval begin="300.00" end="360.00" id="mainline_eval_2_2" nVehContrib="26" flow="1560.00" occupancy="13.77" speed="17.42" length="5.00" nVehEntered="26"/>
    <interval begin="300.00" end="360.00" id="mainline_eval_3_0" nVehContrib="4" flow="240.00" occupancy="3.92" speed="8.70" length="5.00" nVehEntered="6"/>
    <interval begin="300.00" end="360.00" id="mainline_eval_3_1" nVehContrib="22" flow="1320.00" occupancy="25.06" speed="8.99" length="5.00" nVehEntered="21"/>
    <interval begin="300.00" end="360.00" id="mainline_eval_3_2" nVehContrib="28" flow="1680.00" occupancy="17.62" speed="14.76" length="5.00" nVehEntered="28"/>
    <interval begin="300.00" end="360.00" id="mainline_eval_3_3" nVehContrib="26" flow="1560.00" occupancy="13.26" speed="17.32" length="5.00" nVehEntered="26"/>
    <interval begin="300.00" end="360.00" id="mainline_eval_4_0" nVehContrib="0" flow="0.00" occupancy="0.00" speed="-1.00" length="-1.00" nVehEntered="0"/>
    <interval begin="300.00" end="360.00" id="mainline_eval_4_1" nVehContrib="25" flow="1500.00" occupancy="15.26" speed="13.87" length="5.00" nVehEntered="25"/>
    <interval begin="300.00" end="360.00" id="mainline_eval_4_2" nVehContrib="28" flow="1680.00" occupancy="13.65" speed="17.42" length="5.00" nVehEntered="28"/>
    <interval begin="300.00" end="360.00" id="mainline_eval_4_3" nVehContrib="25" flow="1500.00" occupancy="10.76" speed="19.66" length="5.00" nVehEntered="25"/>
    <interval begin="300.00" end="360.00" id="mainline_eval_5_0" nVehContrib="25" flow="1500.00" occupancy="11.40" speed="18.34" length="5.00" nVehEntered="25"/>
    <interval begin="300.00" end="360.00" id="mainline_eval_5_1" nVehContrib="31" flow="1860.00" occupancy="13.39" speed="19.38" length="5.00" nVehEntered="31"/>
    <interval begin="300.00" end="360.00" id="mainline_eval_5_2" nVehContrib="31" flow="1860.00" occupancy="12.05" speed="21.46" length="5.00" nVehEntered="31"/>
    <interval begin="300.00" end="360.00" id="mainline_eval_6_0" nVehContrib="26" flow="1560.00" occupancy="11.61" speed="18.39" length="5.00" nVehEntered="25"/>
    <interval begin="300.00" end="360.00" id="mainline_eval_6_1" nVehContrib="28" flow="1680.00" occupancy="12.14" speed="19.15" length="5.00" nVehEntered="27"/>
    <interval begin="300.00" end="360.00" id="mainline_eval_6_2" nVehContrib="30" flow="1800.00" occupancy="11.65" speed="21.47" length="5.00" nVehEntered="30"/>
    <interval begin="360.00" end="420.00" id="mainline_eval_0_0" nVehContrib="18" flow="1080.00" occupancy="7.71" speed="19.49" length="5.00" nVehEntered="18"/>
    <interval begin="360.00" end="420.00" id="mainline_eval_0_1" nVehContrib="27" flow="1620.00" occupancy="11.11" speed="20.27" length="5.00" nVehEntered="27"/>
    <interval begin="360.00" end="420.00" id="mainline_eval_0_2" nVehContrib="29" flow="1740.00" occupancy="11.48" speed="21.09" length="5.00" nVehEntered="29"/>
    <interval begin="360.00" end="420.00" id="mainline_eval_1_0" nVehContrib="26" flow="1560.00" occupancy="13.41" speed="16.68" length="5.00" nVehEntered="26"/>
    <interval begin="360.00" end="420.00" id="mainline_eval_1_1" nVehContrib="35" flow="2100.00" occupancy="17.40" speed="17.22" length="5.00" nVehEntered="35"/>
    <interval begin="360.00" end="420.00" id="mainline_eval_1_2" nVehContrib="35" flow="2100.00" occupancy="16.21" speed="18.45" length="5.00" nVehEntered="35"/>
    <interval begin="360.00" end="420.00" id="mainline_eval_2_0" nVehContrib="28" flow="1680.00" occupancy="13.98" speed="17.10" length="5.00" nVehEntered="28"/>
    <interval begin="360.00" end="420.00" id="mainline_eval_2_1" nVehContrib="32" flow="1920.00" occupancy="17.50" speed="16.57" length="5.00" nVehEntered="33"/>
    <interval begin="360.00" end="420.00" id="mainline_eval_2_2" nVehContrib="33" flow="1980.00" occupancy="15.12" speed="18.56" length="5.00" nVehEntered="33"/>
    <interval begin="360.00" end="420.00" id="mainline_eval_3_0" nVehContrib="9" flow="540.00" occupancy="7.41" speed="10.41" length="5.00" nVehEntered="9"/>
    <interval begin="360.00" end="420.00" id="mainline_eval_3_1" nVehContrib="24" flow="1440.00" occupancy="27.84" speed="8.07" length="5.00" nVehEntered="25"/>
    <interval begin="360.00" end="420.00" id="mainline_eval_3_2" nVehContrib="30" flow="1800.00" occupancy="25.26" speed="11.38" length="5.00" nVehEntered="31"/>
    <interval begin="360.00" end="420.00" id="mainline_eval_3_3" nVehContrib="36" flow="2160.00" occupancy="19.21" speed="17.00" length="5.00" nVehEntered="36"/>
    <interval begin="360.00" end="420.00" id="mainline_eval_4_0" nVehContrib="1" flow="60.00" occupancy="0.54" speed="15.35" length="5.00" nVehEntered="1"/>
    <interval begin="360.00" end="420.00" id="mainline_eval_4_1" nVehContrib="31" flow="1860.00" occupancy="21.67" speed="12.17" length="5.00" nVehEntered="31"/>
    <interval begin="360.00" end="420.00" id="mainline_eval_4_2" nVehContrib="31" flow="1860.00" occupancy="19.12" speed="14.03" length="5.00" nVehEntered="32"/>
    <interval begin="360.00" end="420.00" id="mainline_eval_4_3" nVehContrib="36" flow="2160.00" occupancy="16.20" speed="18.75" length="5.00" nVehEntered="36"/>
    <interval begin="360.00" end="420.00" id="mainline_eval_5_0" nVehContrib="30" flow="1800.00" occupancy="13.08" speed="19.15" length="5.00" nVehEntered="30"/>
    <interval begin="360.00" end="420.00" id="mainline_eval_5_1" nVehContrib="27" flow="1620.00" occupancy="11.58" speed="19.46" length="5.00" nVehEntered="27"/>
    <interval begin="360.00" end="420.00" id="mainline_eval_5_2" nVehContrib="30" flow="1800.00" occupancy="12.61" speed="20.32" length="5.00" nVehEntered="31"/>
    <interval begin="360.00" end="420.00" id="mainline_eval_6_0" nVehContrib="29" flow="1740.00" occupancy="12.77" speed="18.95" length="5.00" nVehEntered="29"/>
    <interval begin="360.00" end="420.00" id="mainline_eval_6_1" nVehContrib="27" flow="1620.00" occupancy="11.78" speed="19.14" length="5.00" nVehEntered="27"/>
    <interval begin="360.00" end="420.00" id="mainline_eval_6_2" nVehContrib="31" flow="1860.00" occupancy="12.62" speed="20.50" length="5.00" nVehEntered="31"/>
    <interval begin="420.00" end="480.00" id="mainline_eval_0_0" nVehContrib="15" flow="900.00" occupancy="7.00" speed="17.96" length="5.00" nVehEntered="15"/>
    <interval begin="420.00" end="480.00" id="mainline_eval_0_1" nVehContrib="31" flow="1860.00" occupancy="12.81" speed="20.19" length="5.00" nVehEntered="31"/>
    <interval begin="420.00" end="480.00" id="mainline_eval_0_2" nVehContrib="34" flow="2040.00" occupancy="13.53" speed="20.99" length="5.00" nVehEntered="34"/>
    <interval begin="420.00" end="480.00" id="mainline_eval_1_0" nVehContrib="17" flow="1020.00" occupancy="8.31" speed="17.13" length="5.00" nVehEntered="17"/>
    <interval begin="420.00" end="480.00" id="mainline_eval_1_1" nVehContrib="22" flow="1320.00" occupancy="10.34" speed="18.40" length="5.00" nVehEntered="23"/>
    <interval begin="420.00" end="480.00" id="mainline_eval_1_2" nVehContrib="33" flow="1980.00" occupancy="15.09" speed="18.48" length="5.00" nVehEntered="33"/>
    <interval begin="420.00" end="480.00" id="mainline_eval_2_0" nVehContrib="21" flow="1260.00" occupancy="10.29" speed="17.20" length="5.00" nVehEntered="21"/>
    <interval begin="420.00" end="480.00" id="mainline_eval_2_1" nVehContrib="30" flow="1800.00" occupancy="14.88" speed="16.77" length="5.00" nVehEntered="29"/>
    <interval begin="420.00" end="480.00" id="mainline_eval_2_2" nVehContrib="24" flow="1440.00" occupancy="11.17" speed="18.11" length="5.00" nVehEntered="24"/>
    <interval begin="420.00" end="480.00" id="mainline_eval_3_0" nVehContrib="13" flow="780.00" occupancy="10.07" speed="11.24" length="5.00" nVehEntered="15"/>
    <interval begin="420.00" end="480.00" id="mainline_eval_3_1" nVehContrib="26" flow="1560.00" occupancy="36.19" speed="7.69" length="5.00" nVehEntered="26"/>
    <interval begin="420.00" end="480.00" id="mainline_eval_3_2" nVehContrib="35" flow="2100.00" occupancy="19.64" speed="15.59" length="5.00" nVehEntered="35"/>
    <interval begin="420.00" end="480.00" id="mainline_eval_3_3" nVehContrib="28" flow="1680.00" occupancy="12.96" speed="18.35" length="5.00" nVehEntered="28"/>
    <interval begin="420.00" end="480.00" id="mainline_eval_4_0" nVehContrib="7" flow="420.00" occupancy="6.24" speed="10.99" length="5.00" nVehEntered="7"/>
    <interval begin="420.00" end="480.00" id="mainline_eval_4_1" nVehContrib="27" flow="1620.00" occupancy="27.53" speed="11.91" length="5.00" nVehEntered="28"/>
    <interval begin="420.00" end="480.00" id="mainline_eval_4_2" nVehContrib="34" flow="2040.00" occupancy="20.20" speed="16.47" length="5.00" nVehEntered="33"/>
    <interval begin="420.00" end="480.00" id="mainline_eval_4_3" nVehContrib="29" flow="1740.00" occupancy="12.17" speed="19.93" length="5.00" nVehEntered="29"/>
    <interval begin="420.00" end="480.00" id="mainline_eval_5_0" nVehContrib="31" flow="1860.00" occupancy="13.74" speed="18.90" length="5.00" nVehEntered="31"/>
    <interval begin="420.00" end="480.00" id="mainline_eval_5_1" nVehContrib="37" flow="2220.00" occupancy="15.31" speed="20.17" length="5.00" nVehEntered="37"/>
    <interval begin="420.00" end="480.00" id="mainline_eval_5_2" nVehContrib="32" flow="1920.00" occupancy="12.38" speed="21.05" length="5.00" nVehEntered="31"/>