<?xml version="1.0" encoding="UTF-8"?>

<!-- generated on 02/22/19 15:11:32 by Eclipse SUMO Version 1.0.1
<configuration xmlns:xsi="http://www.w3.org/2001/XMLSchema-instance" xsi:noNamespaceSchemaLocation="http://sumo.dlr.de/xsd/sumoConfiguration.xsd">

    <input>
        <net-file value="./project/ramp.net.xml"/>
        <route-files value="./project/ramp.rou.xml"/>
        <additional-files value="./project/ramp.add.xml"/>
    </input>

    <time>
        <begin value="0"/>
    </time>

    <report>
        <verbose value="true"/>
        <no-step-log value="true"/>
    </report>

    <traci_server>
        <remote-port value="57447"/>
    </traci_server>

    <random_number>
        <seed value="665025680"/>
    </random_number>

    <gui_only>
        <quit-on-end value="true"/>
        <start value="true"/>
    </gui_only>

</configuration>
-->

<detector xmlns:xsi="http://www.w3.org/2001/XMLSchema-instance" xsi:noNamespaceSchemaLocation="http://sumo.dlr.de/xsd/det_e1_file.xsd">
    <interval begin="0.00" end="60.00" id="mainline_eval_0_0" nVehContrib="2" flow="120.00" occupancy="0.65" speed="25.64" length="5.00" nVehEntered="2"/>
    <interval begin="0.00" end="60.00" id="mainline_eval_0_1" nVehContrib="0" flow="0.00" occupancy="0.00" speed="-1.00" length="-1.00" nVehEntered="0"/>
    <interval begin="0.00" end="60.00" id="mainline_eval_0_2" nVehContrib="0" flow="0.00" occupancy="0.00" speed="-1.00" length="-1.00" nVehEntered="0"/>
    <interval begin="0.00" end="60.00" id="mainline_eval_1_0" nVehContrib="0" flow="0.00" occupancy="0.00" speed="-1.00" length="-1.00" nVehEntered="0"/>
    <interval begin="0.00" end="60.00" id="mainline_eval_1_1" nVehContrib="0" flow="0.00" occupancy="0.00" speed="-1.00" length="-1.00" nVehEntered="0"/>
    <interval begin="0.00" end="60.00" id="mainline_eval_1_2" nVehContrib="0" flow="0.00" occupancy="0.00" speed="-1.00" length="-1.00" nVehEntered="0"/>
    <interval begin="0.00" end="60.00" id="mainline_eval_2_0" nVehContrib="0" flow="0.00" occupancy="0.00" speed="-1.00" length="-1.00" nVehEntered="0"/>
    <interval begin="0.00" end="60.00" id="mainline_eval_2_1" nVehContrib="0" flow="0.00" occupancy="0.00" speed="-1.00" length="-1.00" nVehEntered="0"/>
    <interval begin="0.00" end="60.00" id="mainline_eval_2_2" nVehContrib="0" flow="0.00" occupancy="0.00" speed="-1.00" length="-1.00" nVehEntered="0"/>
    <interval begin="0.00" end="60.00" id="mainline_eval_3_0" nVehContrib="0" flow="0.00" occupancy="0.00" speed="-1.00" length="-1.00" nVehEntered="0"/>
    <interval begin="0.00" end="60.00" id="mainline_eval_3_1" nVehContrib="0" flow="0.00" occupancy="0.00" speed="-1.00" length="-1.00" nVehEntered="0"/>
    <interval begin="0.00" end="60.00" id="mainline_eval_3_2" nVehContrib="0" flow="0.00" occupancy="0.00" speed="-1.00" length="-1.00" nVehEntered="0"/>
    <interval begin="0.00" end="60.00" id="mainline_eval_3_3" nVehContrib="0" flow="0.00" occupancy="0.00" speed="-1.00" length="-1.00" nVehEntered="0"/>
    <interval begin="0.00" end="60.00" id="mainline_eval_4_0" nVehContrib="0" flow="0.00" occupancy="0.00" speed="-1.00" length="-1.00" nVehEntered="0"/>
    <interval begin="0.00" end="60.00" id="mainline_eval_4_1" nVehContrib="0" flow="0.00" occupancy="0.00" speed="-1.00" length="-1.00" nVehEntered="0"/>
    <interval begin="0.00" end="60.00" id="mainline_eval_4_2" nVehContrib="0" flow="0.00" occupancy="0.00" speed="-1.00" length="-1.00" nVehEntered="0"/>
    <interval begin="0.00" end="60.00" id="mainline_eval_4_3" nVehContrib="0" flow="0.00" occupancy="0.00" speed="-1.00" length="-1.00" nVehEntered="0"/>
    <interval begin="0.00" end="60.00" id="mainline_eval_5_0" nVehContrib="0" flow="0.00" occupancy="0.00" speed="-1.00" length="-1.00" nVehEntered="0"/>
    <interval begin="0.00" end="60.00" id="mainline_eval_5_1" nVehContrib="0" flow="0.00" occupancy="0.00" speed="-1.00" length="-1.00" nVehEntered="0"/>
    <interval begin="0.00" end="60.00" id="mainline_eval_5_2" nVehContrib="0" flow="0.00" occupancy="0.00" speed="-1.00" length="-1.00" nVehEntered="0"/>
    <interval begin="0.00" end="60.00" id="mainline_eval_6_0" nVehContrib="0" flow="0.00" occupancy="0.00" speed="-1.00" length="-1.00" nVehEntered="0"/>
    <interval begin="0.00" end="60.00" id="mainline_eval_6_1" nVehContrib="0" flow="0.00" occupancy="0.00" speed="-1.00" length="-1.00" nVehEntered="0"/>
    <interval begin="0.00" end="60.00" id="mainline_eval_6_2" nVehContrib="0" flow="0.00" occupancy="0.00" speed="-1.00" length="-1.00" nVehEntered="0"/>
    <interval begin="60.00" end="120.00" id="mainline_eval_0_0" nVehContrib="12" flow="720.00" occupancy="4.92" speed="20.42" length="5.00" nVehEntered="12"/>
    <interval begin="60.00" end="120.00" id="mainline_eval_0_1" nVehContrib="20" flow="1200.00" occupancy="8.34" speed="20.13" length="5.00" nVehEntered="20"/>
    <interval begin="60.00" end="120.00" id="mainline_eval_0_2" nVehContrib="20" flow="1200.00" occupancy="7.54" speed="22.16" length="5.00" nVehEntered="20"/>
    <interval begin="60.00" end="120.00" id="mainline_eval_1_0" nVehContrib="11" flow="660.00" occupancy="4.23" speed="21.87" length="5.00" nVehEntered="11"/>
    <interval begin="60.00" end="120.00" id="mainline_eval_1_1" nVehContrib="7" flow="420.00" occupancy="2.82" speed="20.69" length="5.00" nVehEntered="7"/>
    <interval begin="60.00" end="120.00" id="mainline_eval_1_2" nVehContrib="12" flow="720.00" occupancy="4.53" speed="22.13" length="5.00" nVehEntered="12"/>
    <interval begin="60.00" end="120.00" id="mainline_eval_2_0" nVehContrib="7" flow="420.00" occupancy="2.54" speed="23.11" length="5.00" nVehEntered="7"/>
    <interval begin="60.00" end="120.00" id="mainline_eval_2_1" nVehContrib="3" flow="180.00" occupancy="1.12" speed="22.34" length="5.00" nVehEntered="3"/>
    <interval begin="60.00" end="120.00" id="mainline_eval_2_2" nVehContrib="3" flow="180.00" occupancy="1.04" speed="23.99" length="5.00" nVehEntered="3"/>
    <interval begin="60.00" end="120.00" id="mainline_eval_3_0" nVehContrib="0" flow="0.00" occupancy="0.00" speed="-1.00" length="-1.00" nVehEntered="0"/>
    <interval begin="60.00" end="120.00" id="mainline_eval_3_1" nVehContrib="4" flow="240.00" occupancy="1.38" speed="24.26" length="5.00" nVehEntered="4"/>
    <interval begin="60.00" end="120.00" id="mainline_eval_3_2" nVehContrib="1" flow="60.00" occupancy="0.38" speed="22.08" length="5.00" nVehEntered="1"/>
    <interval begin="60.00" end="120.00" id="mainline_eval_3_3" nVehContrib="0" flow="0.00" occupancy="0.00" speed="-1.00" length="-1.00" nVehEntered="0"/>
    <interval begin="60.00" end="120.00" id="mainline_eval_4_0" nVehContrib="0" flow="0.00" occupancy="0.00" speed="-1.00" length="-1.00" nVehEntered="0"/>
    <interval begin="60.00" end="120.00" id="mainline_eval_4_1" nVehContrib="4" flow="240.00" occupancy="1.37" speed="24.39" length="5.00" nVehEntered="4"/>
    <interval begin="60.00" end="120.00" id="mainline_eval_4_2" nVehContrib="1" flow="60.00" occupancy="0.37" speed="22.55" length="5.00" nVehEntered="1"/>
    <interval begin="60.00" end="120.00" id="mainline_eval_4_3" nVehContrib="0" flow="0.00" occupancy="0.00" speed="-1.00" length="-1.00" nVehEntered="0"/>
    <interval begin="60.00" end="120.00" id="mainline_eval_5_0" nVehContrib="2" flow="120.00" occupancy="0.65" speed="25.73" length="5.00" nVehEntered="2"/>
    <interval begin="60.00" end="120.00" id="mainline_eval_5_1" nVehContrib="0" flow="0.00" occupancy="0.00" speed="-1.00" length="-1.00" nVehEntered="0"/>
    <interval begin="60.00" end="120.00" id="mainline_eval_5_2" nVehContrib="0" flow="0.00" occupancy="0.00" speed="-1.00" length="-1.00" nVehEntered="0"/>
    <interval begin="60.00" end="120.00" id="mainline_eval_6_0" nVehContrib="2" flow="120.00" occupancy="0.65" speed="25.48" length="5.00" nVehEntered="2"/>
    <interval begin="60.00" end="120.00" id="mainline_eval_6_1" nVehContrib="0" flow="0.00" occupancy="0.00" speed="-1.00" length="-1.00" nVehEntered="0"/>
    <interval begin="60.00" end="120.00" id="mainline_eval_6_2" nVehContrib="0" flow="0.00" occupancy="0.00" speed="-1.00" length="-1.00" nVehEntered="0"/>
    <interval begin="120.00" end="180.00" id="mainline_eval_0_0" nVehContrib="17" flow="1020.00" occupancy="7.76" speed="18.36" length="5.00" nVehEntered="17"/>
    <interval begin="120.00" end="180.00" id="mainline_eval_0_1" nVehContrib="22" flow="1320.00" occupancy="9.62" speed="19.86" length="5.00" nVehEntered="23"/>
    <interval begin="120.00" end="180.00" id="mainline_eval_0_2" nVehContrib="33" flow="1980.00" occupancy="13.10" speed="21.03" length="5.00" nVehEntered="33"/>
    <interval begin="120.00" end="180.00" id="mainline_eval_1_0" nVehContrib="16" flow="960.00" occupancy="7.09" speed="18.84" length="5.00" nVehEntered="16"/>
    <interval begin="120.00" end="180.00" id="mainline_eval_1_1" nVehContrib="19" flow="1140.00" occupancy="7.94" speed="20.03" length="5.00" nVehEntered="19"/>
    <interval begin="120.00" end="180.00" id="mainline_eval_1_2" nVehContrib="32" flow="1920.00" occupancy="12.39" speed="21.59" length="5.00" nVehEntered="32"/>
    <interval begin="120.00" end="180.00" id="mainline_eval_2_0" nVehContrib="18" flow="1080.00" occupancy="8.00" speed="18.81" length="5.00" nVehEntered="18"/>
    <interval begin="120.00" end="180.00" id="mainline_eval_2_1" nVehContrib="15" flow="900.00" occupancy="6.15" speed="20.35" length="5.00" nVehEntered="15"/>
    <interval begin="120.00" end="180.00" id="mainline_eval_2_2" nVehContrib="29" flow="1740.00" occupancy="11.22" speed="21.59" length="5.00" nVehEntered="29"/>
    <interval begin="120.00" end="180.00" id="mainline_eval_3_0" nVehContrib="2" flow="120.00" occupancy="1.41" speed="11.83" length="5.00" nVehEntered="2"/>
    <interval begin="120.00" end="180.00" id="mainline_eval_3_1" nVehContrib="20" flow="1200.00" occupancy="9.93" speed="17.56" length="5.00" nVehEntered="21"/>
    <interval begin="120.00" end="180.00" id="mainline_eval_3_2" nVehContrib="20" flow="1200.00" occupancy="9.79" speed="19.83" length="5.00" nVehEntered="20"/>
    <interval begin="120.00" end="180.00" id="mainline_eval_3_3" nVehContrib="25" flow="1500.00" occupancy="9.45" speed="22.13" length="5.00" nVehEntered="25"/>
    <interval begin="120.00" end="180.00" id="mainline_eval_4_0" nVehContrib="1" flow="60.00" occupancy="0.60" speed="13.79" length="5.00" nVehEntered="2"/>
    <interval begin="120.00" end="180.00" id="mainline_eval_4_1" nVehContrib="17" flow="1020.00" occupancy="9.89" speed="18.10" length="5.00" nVehEntered="19"/>
    <interval begin="120.00" end="180.00" id="mainline_eval_4_2" nVehContrib="21" flow="1260.00" occupancy="10.35" speed="19.91" length="5.00" nVehEntered="21"/>
    <interval begin="120.00" end="180.00" id="mainline_eval_4_3" nVehContrib="23" flow="1380.00" occupancy="8.76" speed="21.95" length="5.00" nVehEntered="23"/>
    <interval begin="120.00" end="180.00" id="mainline_eval_5_0" nVehContrib="14" flow="840.00" occupancy="5.96" speed="20.33" length="5.00" nVehEntered="15"/>
    <interval begin="120.00" end="180.00" id="mainline_eval_5_1" nVehContrib="15" flow="900.00" occupancy="6.02" speed="20.84" length="5.00" nVehEntered="15"/>
    <interval begin="120.00" end="180.00" id="mainline_eval_5_2" nVehContrib="20" flow="1200.00" occupancy="7.71" speed="21.66" length="5.00" nVehEntered="20"/>
    <interval begin="120.00" end="180.00" id="mainline_eval_6_0" nVehContrib="13" flow="780.00" occupancy="5.29" speed="20.62" length="5.00" nVehEntered="13"/>
    <interval begin="120.00" end="180.00" id="mainline_eval_6_1" nVehContrib="12" flow="720.00" occupancy="4.72" speed="21.29" length="5.00" nVehEntered="12"/>
    <interval begin="120.00" end="180.00" id="mainline_eval_6_2" nVehContrib="16" flow="960.00" occupancy="6.04" speed="22.11" length="5.00" nVehEntered="16"/>
    <interval begin="180.00" end="240.00" id="mainline_eval_0_0" nVehContrib="19" flow="1140.00" occupancy="8.81" speed="18.02" length="5.00" nVehEntered="19"/>
    <interval begin="180.00" end="240.00" id="mainline_eval_0_1" nVehContrib="24" flow="1440.00" occupancy="10.22" speed="18.98" length="5.00" nVehEntered="23"/>
    <interval begin="180.00" end="240.00" id="mainline_eval_0_2" nVehContrib="32" flow="1920.00" occupancy="13.00" speed="20.54" length="5.00" nVehEntered="32"/>
    <interval begin="180.00" end="240.00" id="mainline_eval_1_0" nVehContrib="17" flow="1020.00" occupancy="7.75" speed="18.36" length="5.00" nVehEntered="17"/>
    <interval begin="180.00" end="240.00" id="mainline_eval_1_1" nVehContrib="28" flow="1680.00" occupancy="11.51" speed="20.34" length="5.00" nVehEntered="28"/>
    <interval begin="180.00" end="240.00" id="mainline_eval_1_2" nVehContrib="40" flow="2400.00" occupancy="15.62" speed="21.58" length="5.00" nVehEntered="41"/>
    <interval begin="180.00" end="240.00" id="mainline_eval_2_0" nVehContrib="11" flow="660.00" occupancy="5.20" speed="17.82" length="5.00" nVehEntered="12"/>
    <interval begin="180.00" end="240.00" id="mainline_eval_2_1" nVehContrib="26" flow="1560.00" occupancy="11.49" speed="19.49" length="5.00" nVehEntered="27"/>
    <interval begin="180.00" end="240.00" id="mainline_eval_2_2" nVehContrib="38" flow="2280.00" occupancy="15.32" speed="20.83" length="5.00" nVehEntered="39"/>
    <interval begin="180.00" end="240.00" id="mainline_eval_3_0" nVehContrib="7" flow="420.00" occupancy="4.94" speed="12.30" length="5.00" nVehEntered="9"/>
    <interval begin="180.00" end="240.00" id="mainline_eval_3_1" nVehContrib="27" flow="1620.00" occupancy="25.82" speed="9.91" length="5.00" nVehEntered="28"/>
    <interval begin="180.00" end="240.00" id="mainline_eval_3_2" nVehContrib="27" flow="1620.00" occupancy="15.26" speed="15.80" length="5.00" nVehEntered="27"/>
    <interval begin="180.00" end="240.00" id="mainline_eval_3_3" nVehContrib="37" flow="2220.00" occupancy="14.82" speed="20.84" length="5.00" nVehEntered="37"/>
    <interval begin="180.00" end="240.00" id="mainline_eval_4_0" nVehContrib="1" flow="60.00" occupancy="0.63" speed="13.14" length="5.00" nVehEntered="1"/>
    <interval begin="180.00" end="240.00" id="mainline_eval_4_1" nVehContrib="30" flow="1800.00" occupancy="18.80" speed="13.25" length="5.00" nVehEntered="29"/>
    <interval begin="180.00" end="240.00" id="mainline_eval_4_2" nVehContrib="31" flow="1860.00" occupancy="15.98" speed="16.68" length="5.00" nVehEntered="31"/>
    <interval begin="180.00" end="240.00" id="mainline_eval_4_3" nVehContrib="36" flow="2160.00" occupancy="14.26" speed="21.09" length="5.00" nVehEntered="36"/>
    <interval begin="180.00" end="240.00" id="mainline_eval_5_0" nVehContrib="31" flow="1860.00" occupancy="13.83" speed="18.48" length="5.00" nVehEntered="30"/>
    <interval begin="180.00" end="240.00" id="mainline_eval_5_1" nVehContrib="29" flow="1740.00" occupancy="12.70" speed="19.15" length="5.00" nVehEntered="29"/>
    <interval begin="180.00" end="240.00" id="mainline_eval_5_2" nVehContrib="33" flow="1980.00" occupancy="13.29" speed="20.76" length="5.00" nVehEntered="33"/>
    <interval begin="180.00" end="240.00" id="mainline_eval_6_0" nVehContrib="30" flow="1800.00" occupancy="13.81" speed="18.21" length="5.00" nVehEntered="30"/>
    <interval begin="180.00" end="240.00" id="mainline_eval_6_1" nVehContrib="29" flow="1740.00" occupancy="12.62" speed="19.24" length="5.00" nVehEntered="29"/>
    <interval begin="180.00" end="240.00" id="mainline_eval_6_2" nVehContrib="33" flow="1980.00" occupancy="13.16" speed="20.96" length="5.00" nVehEntered="33"/>
    <interval begin="240.00" end="300.00" id="mainline_eval_0_0" nVehContrib="22" flow="1320.00" occupancy="10.41" speed="17.98" length="5.00" nVehEntered="23"/>
    <interval begin="240.00" end="300.00" id="mainline_eval_0_1" nVehContrib="33" flow="1980.00" occupancy="15.20" speed="18.23" length="5.00" nVehEntered="33"/>
    <interval begin="240.00" end="300.00" id="mainline_eval_0_2" nVehContrib="34" flow="2040.00" occupancy="13.63" speed="20.83" length="5.00" nVehEntered="34"/>
    <interval begin="240.00" end="300.00" id="mainline_eval_1_0" nVehContrib="17" flow="1020.00" occupancy="8.08" speed="17.63" length="5.00" nVehEntered="17"/>
    <interval begin="240.00" end="300.00" id="mainline_eval_1_1" nVehContrib="26" flow="1560.00" occupancy="12.37" speed="17.63" length="5.00" nVehEntered="26"/>
    <interval begin="240.00" end="300.00" id="mainline_eval_1_2" nVehContrib="31" flow="1860.00" occupancy="12.76" speed="20.17" length="5.00" nVehEntered="30"/>
    <interval begin="240.00" end="300.00" id="mainline_eval_2_0" nVehContrib="19" flow="1140.00" occupancy="8.78" speed="18.09" length="5.00" nVehEntered="18"/>
    <interval begin="240.00" end="300.00" id="mainline_eval_2_1" nVehContrib="28" flow="1680.00" occupancy="11.81" speed="19.52" length="5.00" nVehEntered="28"/>
    <interval begin="240.00" end="300.00" id="mainline_eval_2_2" nVehContrib="33" flow="1980.00" occupancy="12.89" speed="21.24" length="5.00" nVehEntered="32"/>
    <interval begin="240.00" end="300.00" id="mainline_eval_3_0" nVehContrib="2" flow="120.00" occupancy="1.29" speed="12.94" length="5.00" nVehEntered="3"/>
    <interval begin="240.00" end="300.00" id="mainline_eval_3_1" nVehContrib="27" flow="1620.00" occupancy="16.15" speed="14.81" length="5.00" nVehEntered="26"/>
    <interval begin="240.00" end="300.00" id="mainline_eval_3_2" nVehContrib="28" flow="1680.00" occupancy="12.39" speed="18.93" length="5.00" nVehEntered="28"/>
    <interval begin="240.00" end="300.00" id="mainline_eval_3_3" nVehContrib="31" flow="1860.00" occupancy="12.29" speed="21.06" length="5.00" nVehEntered="31"/>
    <interval begin="240.00" end="300.00" id="mainline_eval_4_0" nVehContrib="1" flow="60.00" occupancy="0.69" speed="12.04" length="5.00" nVehEntered="1"/>
    <interval begin="240.00" end="300.00" id="mainline_eval_4_1" nVehContrib="27" flow="1620.00" occupancy="13.64" speed="16.62" length="5.00" nVehEntered="27"/>
    <interval begin="240.00" end="300.00" id="mainline_eval_4_2" nVehContrib="28" flow="1680.00" occupancy="12.01" speed="19.49" length="5.00" nVehEntered="28"/>
    <interval begin="240.00" end="300.00" id="mainline_eval_4_3" nVehContrib="31" flow="1860.00" occupancy="12.27" speed="21.07" length="5.00" nVehEntered="31"/>
    <interval begin="240.00" end="300.00" id="mainline_eval_5_0" nVehContrib="26" flow="1560.00" occupancy="12.15" speed="17.94" length="5.00" nVehEntered="26"/>
    <interval begin="240.00" end="300.00" id="mainline_eval_5_1" nVehContrib="33" flow="1980.00" occupancy="14.52" speed="19.06" length="5.00" nVehEntered="33"/>
    <interval begin="240.00" end="300.00" id="mainline_eval_5_2" nVehContrib="34" flow="2040.00" occupancy="13.50" speed="21.02" length="5.00" nVehEntered="34"/>
    <interval begin="240.00" end="300.00" id="mainline_eval_6_0" nVehContrib="28" flow="1680.00" occupancy="12.85" speed="18.23" length="5.00" nVehEntered="28"/>
    <interval begin="240.00" end="300.00" id="mainline_eval_6_1" nVehContrib="34" flow="2040.00" occupancy="14.46" speed="19.63" length="5.00" nVehEntered="34"/>
    <interval begin="240.00" end="300.00" id="mainline_eval_6_2" nVehContrib="36" flow="2160.00" occupancy="14.31" speed="21.37" length="5.00" nVehEntered="37"/>
</detector>
