<?xml version="1.0" encoding="UTF-8"?>

<!-- generated on 07/19/18 06:55:29 by SUMO Version 0.32.0
<?xml version="1.0" encoding="UTF-8"?>

<configuration xmlns:xsi="http://www.w3.org/2001/XMLSchema-instance" xsi:noNamespaceSchemaLocation="http://sumo.dlr.de/xsd/sumoConfiguration.xsd">

    <input>
        <net-file value="./SimulationProject/Scenario_4/ramp.net.xml"/>
        <route-files value="./SimulationProject/Scenario_4/ramp.rou.xml"/>
        <additional-files value="./SimulationProject/Scenario_4/ramp.det.xml"/>
    </input>

    <time>
        <begin value="0"/>
    </time>

    <report>
        <verbose value="true"/>
        <no-step-log value="true"/>
    </report>

    <traci_server>
        <remote-port value="12822"/>
    </traci_server>

    <random_number>
        <seed value="15795"/>
    </random_number>

    <gui_only>
        <quit-on-end value="true"/>
        <start value="true"/>
    </gui_only>

</configuration>
-->

<detector xmlns:xsi="http://www.w3.org/2001/XMLSchema-instance" xsi:noNamespaceSchemaLocation="http://sumo.dlr.de/xsd/det_e1_file.xsd">
    <interval begin="0.00" end="60.00" id="mainline_end_0_0" nVehContrib="4" flow="240.00" occupancy="1.68" speed="19.99" length="5.00" nVehEntered="4"/>
    <interval begin="0.00" end="60.00" id="mainline_end_0_1" nVehContrib="8" flow="480.00" occupancy="3.17" speed="21.25" length="5.00" nVehEntered="8"/>
    <interval begin="0.00" end="60.00" id="mainline_end_0_2" nVehContrib="7" flow="420.00" occupancy="2.51" speed="23.30" length="5.00" nVehEntered="7"/>
    <interval begin="60.00" end="120.00" id="mainline_end_0_0" nVehContrib="11" flow="660.00" occupancy="4.76" speed="19.32" length="5.00" nVehEntered="11"/>
    <interval begin="60.00" end="120.00" id="mainline_end_0_1" nVehContrib="15" flow="900.00" occupancy="6.15" speed="20.43" length="5.00" nVehEntered="15"/>
    <interval begin="60.00" end="120.00" id="mainline_end_0_2" nVehContrib="22" flow="1320.00" occupancy="8.55" speed="21.58" length="5.00" nVehEntered="22"/>
    <interval begin="120.00" end="180.00" id="mainline_end_0_0" nVehContrib="24" flow="1440.00" occupancy="10.02" speed="19.99" length="5.00" nVehEntered="24"/>
    <interval begin="120.00" end="180.00" id="mainline_end_0_1" nVehContrib="26" flow="1560.00" occupancy="10.68" speed="20.36" length="5.00" nVehEntered="26"/>
    <interval begin="120.00" end="180.00" id="mainline_end_0_2" nVehContrib="29" flow="1740.00" occupancy="11.27" speed="21.48" length="5.00" nVehEntered="29"/>
    <interval begin="180.00" end="240.00" id="mainline_end_0_0" nVehContrib="26" flow="1560.00" occupancy="11.65" speed="18.70" length="5.00" nVehEntered="26"/>
    <interval begin="180.00" end="240.00" id="mainline_end_0_1" nVehContrib="33" flow="1980.00" occupancy="13.55" speed="20.32" length="5.00" nVehEntered="33"/>
    <interval begin="180.00" end="240.00" id="mainline_end_0_2" nVehContrib="32" flow="1920.00" occupancy="12.31" speed="21.72" length="5.00" nVehEntered="32"/>
    <interval begin="240.00" end="300.00" id="mainline_end_0_0" nVehContrib="23" flow="1380.00" occupancy="10.11" speed="18.98" length="5.00" nVehEntered="23"/>
    <interval begin="240.00" end="300.00" id="mainline_end_0_1" nVehContrib="27" flow="1620.00" occupancy="11.18" speed="20.15" length="5.00" nVehEntered="27"/>
    <interval begin="240.00" end="300.00" id="mainline_end_0_2" nVehContrib="32" flow="1920.00" occupancy="13.15" speed="20.32" length="5.00" nVehEntered="32"/>
    <interval begin="300.00" end="360.00" id="mainline_end_0_0" nVehContrib="27" flow="1620.00" occupancy="12.31" speed="18.50" length="5.00" nVehEntered="27"/>
    <interval begin="300.00" end="360.00" id="mainline_end_0_1" nVehContrib="28" flow="1680.00" occupancy="11.81" speed="19.83" length="5.00" nVehEntered="28"/>
    <interval begin="300.00" end="360.00" id="mainline_end_0_2" nVehContrib="33" flow="1980.00" occupancy="12.73" speed="21.63" length="5.00" nVehEntered="33"/>
    <interval begin="360.00" end="420.00" id="mainline_end_0_0" nVehContrib="26" flow="1560.00" occupancy="11.25" speed="19.34" length="5.00" nVehEntered="26"/>
    <interval begin="360.00" end="420.00" id="mainline_end_0_1" nVehContrib="28" flow="1680.00" occupancy="11.63" speed="20.08" length="5.00" nVehEntered="28"/>
    <interval begin="360.00" end="420.00" id="mainline_end_0_2" nVehContrib="34" flow="2040.00" occupancy="13.69" speed="20.74" length="5.00" nVehEntered="34"/>
    <interval begin="420.00" end="480.00" id="mainline_end_0_0" nVehContrib="20" flow="1200.00" occupancy="9.27" speed="18.06" length="5.00" nVehEntered="20"/>
    <interval begin="420.00" end="480.00" id="mainline_end_0_1" nVehContrib="29" flow="1740.00" occupancy="12.26" speed="19.76" length="5.00" nVehEntered="29"/>
    <interval begin="420.00" end="480.00" id="mainline_end_0_2" nVehContrib="30" flow="1800.00" occupancy="11.59" speed="21.60" length="5.00" nVehEntered="30"/>
    <interval begin="480.00" end="540.00" id="mainline_end_0_0" nVehContrib="30" flow="1800.00" occupancy="15.16" speed="