<?xml version="1.0" encoding="UTF-8"?>

<!-- generated on 02/22/19 22:02:52 by Eclipse SUMO Version 1.0.1
<configuration xmlns:xsi="http://www.w3.org/2001/XMLSchema-instance" xsi:noNamespaceSchemaLocation="http://sumo.dlr.de/xsd/sumoConfiguration.xsd">

    <input>
        <net-file value="./project/ramp.net.xml"/>
        <route-files value="./project/ramp.rou.xml"/>
        <additional-files value="./project/ramp.add.xml"/>
    </input>

    <time>
        <begin value="0"/>
    </time>

    <report>
        <verbose value="true"/>
        <no-step-log value="true"/>
    </report>

    <traci_server>
        <remote-port value="51590"/>
    </traci_server>

    <random_number>
        <seed value="1688203976"/>
    </random_number>

    <gui_only>
        <quit-on-end value="true"/>
        <start value="true"/>
    </gui_only>

</configuration>
-->

<detector xmlns:xsi="http://www.w3.org/2001/XMLSchema-instance" xsi:noNamespaceSchemaLocation="http://sumo.dlr.de/xsd/det_e1_file.xsd">
    <interval begin="0.00" end="60.00" id="mainline_eval_0_0" nVehContrib="1" flow="60.00" occupancy="0.36" speed="22.89" length="5.00" nVehEntered="1"/>
    <interval begin="0.00" end="60.00" id="mainline_eval_0_1" nVehContrib="1" flow="60.00" occupancy="0.36" speed="22.84" length="5.00" nVehEntered="1"/>
    <interval begin="0.00" end="60.00" id="mainline_eval_0_2" nVehContrib="1" flow="60.00" occupancy="0.32" speed="25.69" length="5.00" nVehEntered="1"/>
    <interval begin="0.00" end="60.00" id="mainline_eval_1_0" nVehContrib="0" flow="0.00" occupancy="0.00" speed="-1.00" length="-1.00" nVehEntered="0"/>
    <interval begin="0.00" end="60.00" id="mainline_eval_1_1" nVehContrib="0" flow="0.00" occupancy="0.00" speed="-1.00" length="-1.00" nVehEntered="0"/>
    <interval begin="0.00" end="60.00" id="mainline_eval_1_2" nVehContrib="0" flow="0.00" occupancy="0.00" speed="-1.00" length="-1.00" nVehEntered="0"/>
    <interval begin="0.00" end="60.00" id="mainline_eval_2_0" nVehContrib="0" flow="0.00" occupancy="0.00" speed="-1.00" length="-1.00" nVehEntered="0"/>
    <interval begin="0.00" end="60.00" id="mainline_eval_2_1" nVehContrib="0" flow="0.00" occupancy="0.00" speed="-1.00" length="-1.00" nVehEntered="0"/>
    <interval begin="0.00" end="60.00" id="mainline_eval_2_2" nVehContrib="0" flow="0.00" occupancy="0.00" speed="-1.00" length="-1.00" nVehEntered="0"/>
    <interval begin="0.00" end="60.00" id="mainline_eval_3_0" nVehContrib="0" flow="0.00" occupancy="0.00" speed="-1.00" length="-1.00" nVehEntered="0"/>
    <interval begin="0.00" end="60.00" id="mainline_eval_3_1" nVehContrib="0" flow="0.00" occupancy="0.00" speed="-1.00" length="-1.00" nVehEntered="0"/>
    <interval begin="0.00" end="60.00" id="mainline_eval_3_2" nVehContrib="0" flow="0.00" occupancy="0.00" speed="-1.00" length="-1.00" nVehEntered="0"/>
    <interval begin="0.00" end="60.00" id="mainline_eval_3_3" nVehContrib="0" flow="0.00" occupancy="0.00" speed="-1.00" length="-1.00" nVehEntered="0"/>
    <interval begin="0.00" end="60.00" id="mainline_eval_4_0" nVehContrib="0" flow="0.00" occupancy="0.00" speed="-1.00" length="-1.00" nVehEntered="0"/>
    <interval begin="0.00" end="60.00" id="mainline_eval_4_1" nVehContrib="0" flow="0.00" occupancy="0.00" speed="-1.00" length="-1.00" nVehEntered="0"/>
    <interval begin="0.00" end="60.00" id="mainline_eval_4_2" nVehContrib="0" flow="0.00" occupancy="0.00" speed="-1.00" length="-1.00" nVehEntered="0"/>
    <interval begin="0.00" end="60.00" id="mainline_eval_4_3" nVehContrib="0" flow="0.00" occupancy="0.00" speed="-1.00" length="-1.00" nVehEntered="0"/>
    <interval begin="0.00" end="60.00" id="mainline_eval_5_0" nVehContrib="0" flow="0.00" occupancy="0.00" speed="-1.00" length="-1.00" nVehEntered="0"/>
    <interval begin="0.00" end="60.00" id="mainline_eval_5_1" nVehContrib="0" flow="0.00" occupancy="0.00" speed="-1.00" length="-1.00" nVehEntered="0"/>
    <interval begin="0.00" end="60.00" id="mainline_eval_5_2" nVehContrib="0" flow="0.00" occupancy="0.00" speed="-1.00" length="-1.00" nVehEntered="0"/>
    <interval begin="0.00" end="60.00" id="mainline_eval_6_0" nVehContrib="0" flow="0.00" occupancy="0.00" speed="-1.00" length="-1.00" nVehEntered="0"/>
    <interval begin="0.00" end="60.00" id="mainline_eval_6_1" nVehContrib="0" flow="0.00" occupancy="0.00" speed="-1.00" length="-1.00" nVehEntered="0"/>
    <interval begin="0.00" end="60.00" id="mainline_eval_6_2" nVehContrib="0" flow="0.00" occupancy="0.00" speed="-1.00" length="-1.00" nVehEntered="0"/>
    <interval begin="60.00" end="120.00" id="mainline_eval_0_0" nVehContrib="14" flow="840.00" occupancy="6.24" speed="18.86" length="5.00" nVehEntered="14"/>
    <interval begin="60.00" end="120.00" id="mainline_eval_0_1" nVehContrib="14" flow="840.00" occupancy="6.20" speed="19.72" length="5.00" nVehEntered="15"/>
    <interval begin="60.00" end="120.00" id="mainline_eval_0_2" nVehContrib="18" flow="1080.00" occupancy="7.49" speed="20.11" length="5.00" nVehEntered="18"/>
    <interval begin="60.00" end="120.00" id="mainline_eval_1_0" nVehContrib="9" flow="540.00" occupancy="3.80" speed="19.86" length="5.00" nVehEntered="9"/>
    <interval begin="60.00" end="120.00" id="mainline_eval_1_1" nVehContrib="9" flow="540.00" occupancy="3.51" speed="21.47" length="5.00" nVehEntered="9"/>
    <interval begin="60.00" end="120.00" id="mainline_eval_1_2" nVehContrib="6" flow="360.00" occupancy="2.30" speed="21.85" length="5.00" nVehEntered="6"/>
    <interval begin="60.00" end="120.00" id="mainline_eval_2_0" nVehContrib="5" flow="300.00" occupancy="2.17" speed="21.89" length="5.00" nVehEntered="6"/>
    <interval begin="60.00" end="120.00" id="mainline_eval_2_1" nVehContrib="4" flow="240.00" occupancy="1.49" speed="22.38" length="5.00" nVehEntered="4"/>
    <interval begin="60.00" end="120.00" id="mainline_eval_2_2" nVehContrib="1" flow="60.00" occupancy="0.34" speed="24.53" length="5.00" nVehEntered="1"/>
    <interval begin="60.00" end="120.00" id="mainline_eval_3_0" nVehContrib="0" flow="0.00" occupancy="0.00" speed="-1.00" length="-1.00" nVehEntered="0"/>
    <interval begin="60.00" end="120.00" id="mainline_eval_3_1" nVehContrib="3" flow="180.00" occupancy="1.10" speed="22.85" length="5.00" nVehEntered="3"/>
    <interval begin="60.00" end="120.00" id="mainline_eval_3_2" nVehContrib="1" flow="60.00" occupancy="0.37" speed="22.60" length="5.00" nVehEntered="1"/>
    <interval begin="60.00" end="120.00" id="mainline_eval_3_3" nVehContrib="0" flow="0.00" occupancy="0.00" speed="-1.00" length="-1.00" nVehEntered="0"/>
    <interval begin="60.00" end="120.00" id="mainline_eval_4_0" nVehContrib="0" flow="0.00" occupancy="0.00" speed="-1.00" length="-1.00" nVehEntered="0"/>
    <interval begin="60.00" end="120.00" id="mainline_eval_4_1" nVehContrib="2" flow="120.00" occupancy="0.70" speed="24.00" length="5.00" nVehEntered="2"/>
    <interval begin="60.00" end="120.00" id="mainline_eval_4_2" nVehContrib="1" flow="60.00" occupancy="0.37" speed="22.72" length="5.00" nVehEntered="1"/>
    <interval begin="60.00" end="120.00" id="mainline_eval_4_3" nVehContrib="0" flow="0.00" occupancy="0.00" speed="-1.00" length="-1.00" nVehEntered="0"/>
    <interval begin="60.00" end="120.00" id="mainline_eval_5_0" nVehContrib="2" flow="120.00" occupancy="0.70" speed="23.74" length="5.00" nVehEntered="2"/>
    <interval begin="60.00" end="120.00" id="mainline_eval_5_1" nVehContrib="1" flow="60.00" occupancy="0.37" speed="22.31" length="5.00" nVehEntered="1"/>
    <interval begin="60.00" end="120.00" id="mainline_eval_5_2" nVehContrib="0" flow="0.00" occupancy="0.00" speed="-1.00" length="-1.00" nVehEntered="0"/>
    <interval begin="60.00" end="120.00" id="mainline_eval_6_0" nVehContrib="1" flow="60.00" occupancy="0.33" speed="25.27" length="5.00" nVehEntered="1"/>
    <interval begin="60.00" end="120.00" id="mainline_eval_6_1" nVehContrib="1" flow="60.00" occupancy="0.37" speed="22.71" length="5.00" nVehEntered="1"/>
    <interval begin="60.00" end="120.00" id="mainline_eval_6_2" nVehContrib="0" flow="0.00" occupancy="0.00" speed="-1.00" length="-1.00" nVehEntered="0"/>
    <interval begin="120.00" end="180.00" id="mainline_eval_0_0" nVehContrib="17" flow="1020.00" occupancy="7.63" speed="18.63" length="5.00" nVehEntered="17"/>
    <interval begin="120.00" end="180.00" id="mainline_eval_0_1" nVehContrib="26" flow="1560.00" occupancy="10.67" speed="19.82" length="5.00" nVehEntered="25"/>
    <interval begin="120.00" end="180.00" id="mainline_eval_0_2" nVehContrib="33" flow="1980.00" occupancy="13.54" speed="20.33" length="5.00" nVehEntered="33"/>
    <interval begin="120.00" end="180.00" id="mainline_eval_1_0" nVehContrib="17" flow="1020.00" occupancy="7.49" speed="18.96" length="5.00" nVehEntered="17"/>
    <interval begin="120.00" end="180.00" id="mainline_eval_1_1" nVehContrib="21" flow="1260.00" occupancy="8.86" speed="19.79" length="5.00" nVehEntered="21"/>
    <interval begin="120.00" end="180.00" id="mainline_eval_1_2" nVehContrib="32" flow="1920.00" occupancy="12.89" speed="20.73" length="5.00" nVehEntered="32"/>
    <interval begin="120.00" end="180.00" id="mainline_eval_2_0" nVehContrib="16" flow="960.00" occupancy="6.88" speed="18.74" length="5.00" nVehEntered="15"/>
    <interval begin="120.00" end="180.00" id="mainline_eval_2_1" nVehContrib="23" flow="1380.00" occupancy="9.86" speed="19.47" length="5.00" nVehEntered="23"/>
    <interval begin="120.00" end="180.00" id="mainline_eval_2_2" nVehContrib="27" flow="1620.00" occupancy="11.02" speed="20.48" length="5.00" nVehEntered="27"/>
    <interval begin="120.00" end="180.00" id="mainline_eval_3_0" nVehContrib="1" flow="60.00" occupancy="0.69" speed="11.99" length="5.00" nVehEntered="1"/>
    <interval begin="120.00" end="180.00" id="mainline_eval_3_1" nVehContrib="19" flow="1140.00" occupancy="9.71" speed="16.95" length="5.00" nVehEntered="19"/>
    <interval begin="120.00" end="180.00" id="mainline_eval_3_2" nVehContrib="24" flow="1440.00" occupancy="10.19" speed="19.72" length="5.00" nVehEntered="24"/>
    <interval begin="120.00" end="180.00" id="mainline_eval_3_3" nVehContrib="20" flow="1200.00" occupancy="8.20" speed="20.44" length="5.00" nVehEntered="20"/>
    <interval begin="120.00" end="180.00" id="mainline_eval_4_0" nVehContrib="0" flow="0.00" occupancy="0.00" speed="-1.00" length="-1.00" nVehEntered="0"/>
    <interval begin="120.00" end="180.00" id="mainline_eval_4_1" nVehContrib="19" flow="1140.00" occupancy="8.67" speed="18.43" length="5.00" nVehEntered="19"/>
    <interval begin="120.00" end="180.00" id="mainline_eval_4_2" nVehContrib="22" flow="1320.00" occupancy="9.17" speed="20.02" length="5.00" nVehEntered="22"/>
    <interval begin="120.00" end="180.00" id="mainline_eval_4_3" nVehContrib="19" flow="1140.00" occupancy="7.80" speed="20.40" length="5.00" nVehEntered="19"/>
    <interval begin="120.00" end="180.00" id="mainline_eval_5_0" nVehContrib="14" flow="840.00" occupancy="7.70" speed="17.91" length="5.00" nVehEntered="14"/>
    <interval begin="120.00" end="180.00" id="mainline_eval_5_1" nVehContrib="14" flow="840.00" occupancy="5.78" speed="20.25" length="5.00" nVehEntered="15"/>
    <interval begin="120.00" end="180.00" id="mainline_eval_5_2" nVehContrib="13" flow="780.00" occupancy="5.26" speed="20.75" length="5.00" nVehEntered="13"/>
    <interval begin="120.00" end="180.00" id="mainline_eval_6_0" nVehContrib="15" flow="900.00" occupancy="6.45" speed="19.50" length="5.00" nVehEntered="15"/>
    <interval begin="120.00" end="180.00" id="mainline_eval_6_1" nVehContrib="11" flow="660.00" occupancy="4.55" speed="20.22" length="5.00" nVehEntered="11"/>
    <interval begin="120.00" end="180.00" id="mainline_eval_6_2" nVehContrib="9" flow="540.00" occupancy="3.65" speed="21.20" length="5.00" nVehEntered="10"/>
    <interval begin="180.00" end="240.00" id="mainline_eval_0_0" nVehContrib="18" flow="1080.00" occupancy="8.32" speed="18.42" length="5.00" nVehEntered="19"/>
    <interval begin="180.00" end="240.00" id="mainline_eval_0_1" nVehContrib="28" flow="1680.00" occupancy="11.33" speed="20.61" length="5.00" nVehEntered="28"/>
    <interval begin="180.00" end="240.00" id="mainline_eval_0_2" nVehContrib="34" flow="2040.00" occupancy="13.26" speed="21.39" length="5.00" nVehEntered="34"/>
    <interval begin="180.00" end="240.00" id="mainline_eval_1_0" nVehContrib="17" flow="1020.00" occupancy="7.73" speed="18.35" length="5.00" nVehEntered="17"/>
    <interval begin="180.00" end="240.00" id="mainline_eval_1_1" nVehContrib="30" flow="1800.00" occupancy="12.53" speed="20.03" length="5.00" nVehEntered="30"/>
    <interval begin="180.00" end="240.00" id="mainline_eval_1_2" nVehContrib="37" flow="2220.00" occupancy="14.86" speed="20.78" length="5.00" nVehEntered="37"/>
    <interval begin="180.00" end="240.00" id="mainline_eval_2_0" nVehContrib="14" flow="840.00" occupancy="6.54" speed="17.89" length="5.00" nVehEntered="14"/>
    <interval begin="180.00" end="240.00" id="mainline_eval_2_1" nVehContrib="29" flow="1740.00" occupancy="12.90" speed="18.85" length="5.00" nVehEntered="29"/>
    <interval begin="180.00" end="240.00" id="mainline_eval_2_2" nVehContrib="33" flow="1980.00" occupancy="13.56" speed="20.29" length="5.00" nVehEntered="33"/>
    <interval begin="180.00" end="240.00" id="mainline_eval_3_0" nVehContrib="5" flow="300.00" occupancy="3.31" speed="12.65" length="5.00" nVehEntered="5"/>
    <interval begin="180.00" end="240.00" id="mainline_eval_3_1" nVehContrib="23" flow="1380.00" occupancy="15.93" speed="13.51" length="5.00" nVehEntered="24"/>
    <interval begin="180.00" end="240.00" id="mainline_eval_3_2" nVehContrib="28" flow="1680.00" occupancy="12.73" speed="18.68" length="5.00" nVehEntered="28"/>
    <interval begin="180.00" end="240.00" id="mainline_eval_3_3" nVehContrib="35" flow="2100.00" occupancy="14.47" speed="20.18" length="5.00" nVehEntered="35"/>
    <interval begin="180.00" end="240.00" id="mainline_eval_4_0" nVehContrib="0" flow="0.00" occupancy="0.00" speed="-1.00" length="-1.00" nVehEntered="0"/>
    <interval begin="180.00" end="240.00" id="mainline_eval_4_1" nVehContrib="26" flow="1560.00" occupancy="14.24" speed="15.55" length="5.00" nVehEntered="26"/>
    <interval begin="180.00" end="240.00" id="mainline_eval_4_2" nVehContrib="28" flow="1680.00" occupancy="12.62" speed="18.72" length="5.00" nVehEntered="28"/>
    <interval begin="180.00" end="240.00" id="mainline_eval_4_3" nVehContrib="35" flow="2100.00" occupancy="14.47" speed="20.19" length="5.00" nVehEntered="35"/>
    <interval begin="180.00" end="240.00" id="mainline_eval_5_0" nVehContrib="25" flow="1500.00" occupancy="11.78" speed="17.79" length="5.00" nVehEntered="25"/>
    <interval begin="180.00" end="240.00" id="mainline_eval_5_1" nVehContrib="30" flow="1800.00" occupancy="13.41" speed="18.71" length="5.00" nVehEntered="30"/>
    <interval begin="180.00" end="240.00" id="mainline_eval_5_2" nVehContrib="35" flow="2100.00" occupancy="14.74" speed="19.82" length="5.00" nVehEntered="35"/>
    <interval begin="180.00" end="240.00" id="mainline_eval_6_0" nVehContrib="23" flow="1380.00" occupancy="10.78" speed="17.85" length="5.00" nVehEntered="23"/>
    <interval begin="180.00" end="240.00" id="mainline_eval_6_1" nVehContrib="29" flow="1740.00" occupancy="13.08" speed="18.56" length="5.00" nVehEntered="29"/>
    <interval begin="180.00" end="240.00" id="mainline_eval_6_2" nVehContrib="36" flow="2160.00" occupancy="14.68" speed="20.37" length="5.00" nVehEntered="35"/>
    <interval begin="240.00" end="300.00" id="mainline_eval_0_0" nVehContrib="19" flow="1140.00" occupancy="8.44" speed="18.46" length="5.00" nVehEntered="18"/>
    <interval begin="240.00" end="300.00" id="mainline_eval_0_1" nVehContrib="27" flow="1620.00" occupancy="11.41" speed="19.74" length="5.00" nVehEntered="27"/>
    <interval begin="240.00" end="300.00" id="mainline_eval_0_2" nVehContrib="35" flow="2100.00" occupancy="13.84" speed="21.17" length="5.00" nVehEntered="35"/>
    <interval begin="240.00" end="300.00" id="mainline_eval_1_0" nVehContrib="13" flow="780.00" occupancy="5.90" speed="18.38" length="5.00" nVehEntered="13"/>
    <interval begin="240.00" end="300.00" id="mainline_eval_1_1" nVehContrib="31" flow="1860.00" occupancy="13.10" speed="19.74" length="5.00" nVehEntered="31"/>
    <interval begin="240.00" end="300.00" id="mainline_eval_1_2" nVehContrib="34" flow="2040.00" occupancy="13.45" speed="21.10" length="5.00" nVehEntered="34"/>
    <interval begin="240.00" end="300.00" id="mainline_eval_2_0" nVehContrib="14" flow="840.00" occupancy="6.39" speed="18.31" length="5.00" nVehEntered="14"/>
    <interval begin="240.00" end="300.00" id="mainline_eval_2_1" nVehContrib="30" flow="1800.00" occupancy="13.11" speed="19.17" length="5.00" nVehEntered="30"/>
    <interval begin="240.00" end="300.00" id="mainline_eval_2_2" nVehContrib="34" flow="2040.00" occupancy="13.50" speed="21.03" length="5.00" nVehEntered="34"/>
    <interval begin="240.00" end="300.00" id="mainline_eval_3_0" nVehContrib="7" flow="420.00" occupancy="6.32" speed="10.62" length="5.00" nVehEntered="7"/>
    <interval begin="240.00" end="300.00" id="mainline_eval_3_1" nVehContrib="25" flow="1500.00" occupancy="17.63" speed="12.20" length="5.00" nVehEntered="24"/>
    <interval begin="240.00" end="300.00" id="mainline_eval_3_2" nVehContrib="33" flow="1980.00" occupancy="15.78" speed="17.76" length="5.00" nVehEntered="33"/>
    <interval begin="240.00" end="300.00" id="mainline_eval_3_3" nVehContrib="35" flow="2100.00" occupancy="14.38" speed="20.35" length="5.00" nVehEntered="35"/>
    <interval begin="240.00" end="300.00" id="mainline_eval_4_0" nVehContrib="2" flow="120.00" occupancy="2.01" speed="8.32" length="5.00" nVehEntered="4"/>
    <interval begin="240.00" end="300.00" id="mainline_eval_4_1" nVehContrib="29" flow="1740.00" occupancy="26.51" speed="11.36" length="5.00" nVehEntered="29"/>
    <interval begin="240.00" end="300.00" id="mainline_eval_4_2" nVehContrib="36" flow="2160.00" occupancy="16.59" speed="18.28" length="5.00" nVehEntered="36"/>
    <interval begin="240.00" end="300.00" id="mainline_eval_4_3" nVehContrib="36" flow="2160.00" occupancy="14.39" speed="20.90" length="5.00" nVehEntered="36"/>
    <interval begin="240.00" end="300.00" id="mainline_eval_5_0" nVehContrib="29" flow="1740.00" occupancy="13.81" speed="18.05" length="5.00" nVehEntered="30"/>
    <interval begin="240.00" end="300.00" id="mainline_eval_5_1" nVehContrib="35" flow="2100.00" occupancy="15.59" speed="18.78" length="5.00" nVehEntered="35"/>
    <interval begin="240.00" end="300.00" id="mainline_eval_5_2" nVehContrib="37" flow="2220.00" occupancy="15.15" speed="20.55" length="5.00" nVehEntered="38"/>
    <interval begin="240.00" end="300.00" id="mainline_eval_6_0" nVehContrib="30" flow="1800.00" occupancy="14.41" speed="17.44" length="5.00" nVehEntered="30"/>
    <interval begin="240.00" end="300.00" id="mainline_eval_6_1" nVehContrib="36" flow="2160.00" occupancy="16.57" speed="18.50" length="5.00" nVehEntered="37"/>
    <interval begin="240.00" end="300.00" id="mainline_eval_6_2" nVehContrib="38" flow="2280.00" occupancy="15.21" speed="20.83" length="5.00" nVehEntered="38"/>
    <interval begin="300.00" end="360.00" id="mainline_eval_0_0" nVehContrib="16" flow="960.00" occupancy="7.50" speed="17.93" length="5.00" nVehEntered="16"/>
    <interval begin="300.00" end="360.00" id="mainline_eval_0_1" nVehContrib="21" flow="1260.00" occupancy="9.07" speed="19.45" length="5.00" nVehEntered="21"/>
    <interval begin="300.00" end="360.00" id="mainline_eval_0_2" nVehContrib="30" flow="1800.00" occupancy="12.34" speed="20.29" length="5.00" nVehEntered="30"/>
    <interval begin="300.00" end="360.00" id="mainline_eval_1_0" nVehContrib="24" flow="1440.00" occupancy="12.90" speed="15.61" length="5.00" nVehEntered="24"/>
    <interval begin="300.00" end="360.00" id="mainline_eval_1_1" nVehContrib="17" flow="1020.00" occupancy="10.47" speed="13.53" length="5.00" nVehEntered="17"/>
    <interval begin="300.00" end="360.00" id="mainline_eval_1_2" nVehContrib="32" flow="1920.00" occupancy="12.87" speed="20.76" length="5.00" nVehEntered="32"/>
    <interval begin="300.00" end="360.00" id="mainline_eval_2_0" nVehContrib="20" flow="1200.00" occupancy="10.83" speed="15.48" length="5.00" nVehEntered="20"/>
    <interval begin="300.00" end="360.00" id="mainline_eval_2_1" nVehContrib="17" flow="1020.00" occupancy="10.45" speed="13.56" length="5.00" nVehEntered="17"/>
    <interval begin="300.00" end="360.00" id="mainline_eval_2_2" nVehContrib="34" flow="2040.00" occupancy="14.18" speed="20.06" length="5.00" nVehEntered="34"/>
    <interval begin="300.00" end="360.00" id="mainline_eval_3_0" nVehContrib="3" flow="180.00" occupancy="2.50" speed="10.42" length="5.00" nVehEntered="4"/>
    <interval begin="300.00" end="360.00" id="mainline_eval_3_1" nVehContrib="22" flow="1320.00" occupancy="21.05" speed="10.29" length="5.00" nVehEntered="23"/>
    <interval begin="300.00" end="360.00" id="mainline_eval_3_2" nVehContrib="27" flow="1620.00" occupancy="17.42" speed="13.68" length="5.00" nVehEntered="27"/>
    <interval begin="300.00" end="360.00" id="mainline_eval_3_3" nVehContrib="36" flow="2160.00" occupancy="14.91" speed="20.18" length="5.00" nVehEntered="36"/>
    <interval begin="300.00" end="360.00" id="mainline_eval_4_0" nVehContrib="0" flow="0.00" occupancy="0.00" speed="-1.00" length="-1.00" nVehEntered="0"/>
    <interval begin="300.00" end="360.00" id="mainline_eval_4_1" nVehContrib="24" flow="1440.00" occupancy="13.47" speed="15.09" length="5.00" nVehEntered="24"/>
    <interval begin="300.00" end="360.00" id="mainline_eval_4_2" nVehContrib="27" flow="1620.00" occupancy="13.83" speed="16.87" length="5.00" nVehEntered="28"/>
    <interval begin="300.00" end="360.00" id="mainline_eval_4_3" nVehContrib="36" flow="2160.00" occupancy="15.02" speed="20.03" length="5.00" nVehEntered="36"/>
    <interval begin="300.00" end="360.00" id="mainline_eval_5_0" nVehContrib="27" flow="1620.00" occupancy="11.97" speed="18.27" length="5.00" nVehEntered="26"/>
    <interval begin="300.00" end="360.00" id="mainline_eval_5_1" nVehContrib="28" flow="1680.00" occupancy="12.69" speed="18.55" length="5.00" nVehEntered="28"/>
    <interval begin="300.00" end="360.00" id="mainline_eval_5_2" nVehContrib="35" flow="2100.00" occupancy="14.13" speed="20.50" length="5.00" nVehEntered="34"/>
    <interval begin="300.00" end="360.00" id="mainline_eval_6_0" nVehContrib="27" flow="1620.00" occupancy="12.43" speed="18.13" length="5.00" nVehEntered="27"/>
    <interval begin="300.00" end="360.00" id="mainline_eval_6_1" nVehContrib="27" flow="1620.00" occupancy="11.75" speed="18.80" length="5.00" nVehEntered="26"/>
    <interval begin="300.00" end="360.00" id="mainline_eval_6_2" nVehContrib="34" flow="2040.00" occupancy="13.78" speed="20.60" length="5.00" nVehEntered="34"/>
    <interval begin="360.00" end="420.00" id="mainline_eval_0_0" nVehContrib="18" flow="1080.00" occupancy="8.54" speed="17.59" length="5.00" nVehEntered="18"/>
    <interval begin="360.00" end="420.00" id="mainline_eval_0_1" nVehContrib="27" flow="1620.00" occupancy="12.16" speed="18.62" length="5.00" nVehEntered="27"/>
    <interval begin="360.00" end="420.00" id="mainline_eval_0_2" nVehContrib="34" flow="2040.00" occupancy="13.97" speed="20.50" length="5.00" nVehEntered="35"/>
    <interval begin="360.00" end="420.00" id="mainline_eval_1_0" nVehContrib="27" flow="1620.00" occupancy="19.18" speed="14.25" length="5.00" nVehEntered="27"/>
    <interval begin="360.00" end="420.00" id="mainline_eval_1_1" nVehContrib="19" flow="1140.00" occupancy="11.80" speed="13.48" length="5.00" nVehEntered="22"/>
    <interval begin="360.00" end="420.00" id="mainline_eval_1_2" nVehContrib="34" flow="2040.00" occupancy="13.42" speed="21.15" length="5.00" nVehEntered="34"/>
    <interval begin="360.00" end="420.00" id="mainline_eval_2_0" nVehContrib="27" flow="1620.00" occupancy="13.90" speed="16.19" length="5.00" nVehEntered="27"/>
    <interval begin="360.00" end="420.00" id="mainline_eval_2_1" nVehContrib="13" flow="780.00" occupancy="7.89" speed="13.76" length="5.00" nVehEntered="13"/>
    <interval begin="360.00" end="420.00" id="mainline_eval_2_2" nVehContrib="33" flow="1980.00" occupancy="13.44" speed="20.52" length="5.00" nVehEntered="33"/>
    <interval begin="360.00" end="420.00" id="mainline_eval_3_0" nVehContrib="9" flow="540.00" occupancy="9.11" speed="9.01" length="5.00" nVehEntered="10"/>
    <interval begin="360.00" end="420.00" id="mainline_eval_3_1" nVehContrib="25" flow="1500.00" occupancy="26.93" speed="8.98" length="5.00" nVehEntered="26"/>
    <interval begin="360.00" end="420.00" id="mainline_eval_3_2" nVehContrib="26" flow="1560.00" occupancy="18.39" speed="12.94" length="5.00" nVehEntered="27"/>
    <interval begin="360.00" end="420.00" id="mainline_eval_3_3" nVehContrib="33" flow="1980.00" occupancy="16.02" speed="19.68" length="5.00" nVehEntered="33"/>
    <interval begin="360.00" end="420.00" id="mainline_eval_4_0" nVehContrib="1" flow="60.00" occupancy="1.04" speed="7.99" length="5.00" nVehEntered="3"/>
    <interval begin="360.00" end="420.00" id="mainline_eval_4_1" nVehContrib="29" flow="1740.00" occupancy="23.50" speed="11.21" length="5.00" nVehEntered="29"/>
    <interval begin="360.00" end="420.00" id="mainline_eval_4_2" nVehContrib="29" flow="1740.00" occupancy="16.81" speed="14.60" length="5.00" nVehEntered="28"/>
    <interval begin="360.00" end="420.00" id="mainline_eval_4_3" nVehContrib="34" flow="2040.00" occupancy="14.63" speed="19.82" length="5.00" nVehEntered="35"/>
    <interval begin="360.00" end="420.00" id="mainline_eval_5_0" nVehContrib="27" flow="1620.00" occupancy="12.09" speed="18.68" length="5.00" nVehEntered="27"/>
    <interval begin="360.00" end="420.00" id="mainline_eval_5_1" nVehContrib="29" flow="1740.00" occupancy="12.87" speed="18.97" length="5.00" nVehEntered="30"/>
    <interval begin="360.00" end="420.00" id="mainline_eval_5_2" nVehContrib="35" flow="2100.00" occupancy="14.18" speed="20.61" length="5.00" nVehEntered="35"/>
    <interval begin="360.00" end="420.00" id="mainline_eval_6_0" nVehContrib="27" flow="1620.00" occupancy="11.87" speed="19.00" length="5.00" nVehEntered="27"/>
    <interval begin="360.00" end="420.00" id="mainline_eval_6_1" nVehContrib="30" flow="1800.00" occupancy="13.07" speed="19.19" length="5.00" nVehEntered="30"/>
    <interval begin="360.00" end="420.00" id="mainline_eval_6_2" nVehContrib="36" flow="2160.00" occupancy="14.39" speed="20.87" length="5.00" nVehEntered="36"/>
    <interval begin="420.00" end="480.00" id="mainline_eval_0_0" nVehContrib="20" flow="1200.00" occupancy="9.04" speed="18.52" length="5.00" nVehEntered="20"/>
    <interval begin="420.00" end="480.00" id="mainline_eval_0_1" nVehContrib="26" flow="1560.00" occupancy="11.42" speed="19.01" length="5.00" nVehEntered="26"/>
    <interval begin="420.00" end="480.00" id="mainline_eval_0_2" nVehContrib="37" flow="2220.00" occupancy="15.31" speed="20.54" length="5.00" nVehEntered="37"/>
    <interval begin="420.00" end="480.00" id="mainline_eval_1_0" nVehContrib="24" flow="1440.00" occupancy="14.16" speed="15.35" length="5.00" nVehEntered="25"/>
    <interval begin="420.00" end="480.00" id="mainline_eval_1_1" nVehContrib="19" flow="1140.00" occupancy="11.72" speed="13.52" length="5.00" nVehEntered="20"/>
    <interval begin="420.00" end="480.00" id="mainline_eval_1_2" nVehContrib="36" flow="2160.00" occupancy="14.58" speed="20.87" length="5.00" nVehEntered="37"/>
    <interval begin="420.00" end="480.00" id="mainline_eval_2_0" nVehContrib="23" flow="1380.00" occupancy="12.18" speed="15.80" length="5.00" nVehEntered="24"/>
    <interval begin="420.00" end="480.00" id="mainline_eval_2_1" nVehContrib="19" flow="1140.00" occupancy="13.11" speed="13.00" length="5.00" nVehEntered="19"/>
    <interval begin="420.00" end="480.00" id="mainline_eval_2_2" nVehContrib="37" flow="2220.00" occupancy="15.46" speed="19.97" length="5.00" nVehEntered="37"/>
    <interval begin="420.00" end="480.00" id="mainline_eval_3_0" nVehContrib="10" flow="600.00" occupancy="8.14" speed="10.94" length="5.00" nVehEntered="12"/>
    <interval begin="420.00" end="480.00" id="mainline_eval_3_1" nVehContrib="24" flow="1440.00" occupancy="23.49" speed="10.30" length="5.00" nVehEntered="24"/>
    <interval begin="420.00" end="480.00" id="mainline_eval_3_2" nVehContrib="26" flow="1560.00" occupancy="18.64" speed="13.15" length="5.00" nVehEntered="26"/>
    <interval begin="420.00" end="480.00" id="mainline_eval_3_3" nVehContrib="36" flow="2160.00" occupancy="15.25" speed="19.71" length="5.00" nVehEntered="36"/>
    <interval begin="420.00" end="480.00" id="mainline_eval_4_0" nVehContrib="2" flow="120.00" occupancy="2.20" speed="8.42" length="5.00" nVehEntered="2"/>
    <interval begin="420.00" end="480.00" id="mainline_eval_4_1" nVehContrib="27" flow="1620.00" occupancy="17.09" speed="13.99" length="5.00" nVehEntered="28"/>
    <interval begin="420.00" end="480.00" id="mainline_eval_4_2" nVehContrib="28" flow="1680.00" occupancy="14.94" speed="16.09" length="5.00" nVehEntered="28"/>
    <interval begin="420.00" end="480.00" id="mainline_eval_4_3" nVehContrib="36" flow="2160.00" occupancy="15.38" speed="19.67" length="5.00" nVehEntered="36"/>
    <interval begin="420.00" end="480.00" id="mainline_eval_5_0" nVehContrib="29" flow="1740.00" occupancy="13.89" speed="17.55" length="5.00" nVehEntered="29"/>
    <interval begin="420.00" end="480.00" id="mainline_eval_5_1" nVehContrib="33" flow="1980.00" occupancy="15.03" speed="18.24" length="5.00" nVehEntered="32"/>
    <interval begin="420.00" end="480.00" id="mainline_eval_5_2" nVehContrib="36" flow="2160.00" occupancy="15.12" speed="19.92" length="5.00" nVehEntered="36"/>