<?xml version="1.0" encoding="UTF-8"?>

<!-- generated on 02/24/19 21:23:11 by Eclipse SUMO Version 1.0.1
<configuration xmlns:xsi="http://www.w3.org/2001/XMLSchema-instance" xsi:noNamespaceSchemaLocation="http://sumo.dlr.de/xsd/sumoConfiguration.xsd">

    <input>
        <net-file value="./project/ramp.net.xml"/>
        <route-files value="./project/ramp.rou.xml"/>
        <additional-files value="./project/ramp.add.xml"/>
    </input>

    <time>
        <begin value="0"/>
    </time>

    <report>
        <verbose value="true"/>
        <no-step-log value="true"/>
    </report>

    <traci_server>
        <remote-port value="60531"/>
    </traci_server>

    <random_number>
        <seed value="1101104964"/>
    </random_number>

    <gui_only>
        <quit-on-end value="true"/>
        <start value="true"/>
    </gui_only>

</configuration>
-->

<detector xmlns:xsi="http://www.w3.org/2001/XMLSchema-instance" xsi:noNamespaceSchemaLocation="http://sumo.dlr.de/xsd/det_e1_file.xsd">
    <interval begin="0.00" end="60.00" id="mainline_eval_0_0" nVehContrib="1" flow="60.00" occupancy="0.34" speed="24.78" length="5.00" nVehEntered="1"/>
    <interval begin="0.00" end="60.00" id="mainline_eval_0_1" nVehContrib="1" flow="60.00" occupancy="0.34" speed="24.44" length="5.00" nVehEntered="1"/>
    <interval begin="0.00" end="60.00" id="mainline_eval_0_2" nVehContrib="0" flow="0.00" occupancy="0.00" speed="-1.00" length="-1.00" nVehEntered="0"/>
    <interval begin="0.00" end="60.00" id="mainline_eval_1_0" nVehContrib="0" flow="0.00" occupancy="0.00" speed="-1.00" length="-1.00" nVehEntered="0"/>
    <interval begin="0.00" end="60.00" id="mainline_eval_1_1" nVehContrib="0" flow="0.00" occupancy="0.00" speed="-1.00" length="-1.00" nVehEntered="0"/>
    <interval begin="0.00" end="60.00" id="mainline_eval_1_2" nVehContrib="0" flow="0.00" occupancy="0.00" speed="-1.00" length="-1.00" nVehEntered="0"/>
    <interval begin="0.00" end="60.00" id="mainline_eval_2_0" nVehContrib="0" flow="0.00" occupancy="0.00" speed="-1.00" length="-1.00" nVehEntered="0"/>
    <interval begin="0.00" end="60.00" id="mainline_eval_2_1" nVehContrib="0" flow="0.00" occupancy="0.00" speed="-1.00" length="-1.00" nVehEntered="0"/>
    <interval begin="0.00" end="60.00" id="mainline_eval_2_2" nVehContrib="0" flow="0.00" occupancy="0.00" speed="-1.00" length="-1.00" nVehEntered="0"/>
    <interval begin="0.00" end="60.00" id="mainline_eval_3_0" nVehContrib="0" flow="0.00" occupancy="0.00" speed="-1.00" length="-1.00" nVehEntered="0"/>
    <interval begin="0.00" end="60.00" id="mainline_eval_3_1" nVehContrib="0" flow="0.00" occupancy="0.00" speed="-1.00" length="-1.00" nVehEntered="0"/>
    <interval begin="0.00" end="60.00" id="mainline_eval_3_2" nVehContrib="0" flow="0.00" occupancy="0.00" speed="-1.00" length="-1.00" nVehEntered="0"/>
    <interval begin="0.00" end="60.00" id="mainline_eval_3_3" nVehContrib="0" flow="0.00" occupancy="0.00" speed="-1.00" length="-1.00" nVehEntered="0"/>
    <interval begin="0.00" end="60.00" id="mainline_eval_4_0" nVehContrib="0" flow="0.00" occupancy="0.00" speed="-1.00" length="-1.00" nVehEntered="0"/>
    <interval begin="0.00" end="60.00" id="mainline_eval_4_1" nVehContrib="0" flow="0.00" occupancy="0.00" speed="-1.00" length="-1.00" nVehEntered="0"/>
    <interval begin="0.00" end="60.00" id="mainline_eval_4_2" nVehContrib="0" flow="0.00" occupancy="0.00" speed="-1.00" length="-1.00" nVehEntered="0"/>
    <interval begin="0.00" end="60.00" id="mainline_eval_4_3" nVehContrib="0" flow="0.00" occupancy="0.00" speed="-1.00" length="-1.00" nVehEntered="0"/>
    <interval begin="0.00" end="60.00" id="mainline_eval_5_0" nVehContrib="0" flow="0.00" occupancy="0.00" speed="-1.00" length="-1.00" nVehEntered="0"/>
    <interval begin="0.00" end="60.00" id="mainline_eval_5_1" nVehContrib="0" flow="0.00" occupancy="0.00" speed="-1.00" length="-1.00" nVehEntered="0"/>
    <interval begin="0.00" end="60.00" id="mainline_eval_5_2" nVehContrib="0" flow="0.00" occupancy="0.00" speed="-1.00" length="-1.00" nVehEntered="0"/>
    <interval begin="0.00" end="60.00" id="mainline_eval_6_0" nVehContrib="0" flow="0.00" occupancy="0.00" speed="-1.00" length="-1.00" nVehEntered="0"/>
    <interval begin="0.00" end="60.00" id="mainline_eval_6_1" nVehContrib="0" flow="0.00" occupancy="0.00" speed="-1.00" length="-1.00" nVehEntered="0"/>
    <interval begin="0.00" end="60.00" id="mainline_eval_6_2" nVehContrib="0" flow="0.00" occupancy="0.00" speed="-1.00" length="-1.00" nVehEntered="0"/>
    <interval begin="60.00" end="120.00" id="mainline_eval_0_0" nVehContrib="12" flow="720.00" occupancy="5.02" speed="20.06" length="5.00" nVehEntered="12"/>
    <interval begin="60.00" end="120.00" id="mainline_eval_0_1" nVehContrib="15" flow="900.00" occupancy="7.51" speed="19.62" length="5.00" nVehEntered="15"/>
    <interval begin="60.00" end="120.00" id="mainline_eval_0_2" nVehContrib="23" flow="1380.00" occupancy="8.42" speed="22.77" length="5.00" nVehEntered="24"/>
    <interval begin="60.00" end="120.00" id="mainline_eval_1_0" nVehContrib="12" flow="720.00" occupancy="4.74" speed="21.26" length="5.00" nVehEntered="12"/>
    <interval begin="60.00" end="120.00" id="mainline_eval_1_1" nVehContrib="8" flow="480.00" occupancy="3.04" speed="22.00" length="5.00" nVehEntered="8"/>
    <interval begin="60.00" end="120.00" id="mainline_eval_1_2" nVehContrib="13" flow="780.00" occupancy="4.81" speed="22.55" length="5.00" nVehEntered="13"/>
    <interval begin="60.00" end="120.00" id="mainline_eval_2_0" nVehContrib="7" flow="420.00" occupancy="2.66" speed="22.09" length="5.00" nVehEntered="7"/>
    <interval begin="60.00" end="120.00" id="mainline_eval_2_1" nVehContrib="3" flow="180.00" occupancy="1.07" speed="23.53" length="5.00" nVehEntered="3"/>
    <interval begin="60.00" end="120.00" id="mainline_eval_2_2" nVehContrib="1" flow="60.00" occupancy="0.37" speed="22.75" length="5.00" nVehEntered="1"/>
    <interval begin="60.00" end="120.00" id="mainline_eval_3_0" nVehContrib="0" flow="0.00" occupancy="0.00" speed="-1.00" length="-1.00" nVehEntered="0"/>
    <interval begin="60.00" end="120.00" id="mainline_eval_3_1" nVehContrib="4" flow="240.00" occupancy="1.56" speed="23.52" length="5.00" nVehEntered="5"/>
    <interval begin="60.00" end="120.00" id="mainline_eval_3_2" nVehContrib="2" flow="120.00" occupancy="0.67" speed="24.85" length="5.00" nVehEntered="2"/>
    <interval begin="60.00" end="120.00" id="mainline_eval_3_3" nVehContrib="0" flow="0.00" occupancy="0.00" speed="-1.00" length="-1.00" nVehEntered="0"/>
    <interval begin="60.00" end="120.00" id="mainline_eval_4_0" nVehContrib="0" flow="0.00" occupancy="0.00" speed="-1.00" length="-1.00" nVehEntered="0"/>
    <interval begin="60.00" end="120.00" id="mainline_eval_4_1" nVehContrib="4" flow="240.00" occupancy="1.42" speed="23.51" length="5.00" nVehEntered="4"/>
    <interval begin="60.00" end="120.00" id="mainline_eval_4_2" nVehContrib="1" flow="60.00" occupancy="0.64" speed="23.97" length="5.00" nVehEntered="2"/>
    <interval begin="60.00" end="120.00" id="mainline_eval_4_3" nVehContrib="0" flow="0.00" occupancy="0.00" speed="-1.00" length="-1.00" nVehEntered="0"/>
    <interval begin="60.00" end="120.00" id="mainline_eval_5_0" nVehContrib="3" flow="180.00" occupancy="1.05" speed="23.95" length="5.00" nVehEntered="3"/>
    <interval begin="60.00" end="120.00" id="mainline_eval_5_1" nVehContrib="1" flow="60.00" occupancy="0.34" speed="24.21" length="5.00" nVehEntered="1"/>
    <interval begin="60.00" end="120.00" id="mainline_eval_5_2" nVehContrib="0" flow="0.00" occupancy="0.00" speed="-1.00" length="-1.00" nVehEntered="0"/>
    <interval begin="60.00" end="120.00" id="mainline_eval_6_0" nVehContrib="2" flow="120.00" occupancy="0.67" speed="24.88" length="5.00" nVehEntered="2"/>
    <interval begin="60.00" end="120.00" id="mainline_eval_6_1" nVehContrib="0" flow="0.00" occupancy="0.00" speed="-1.00" length="-1.00" nVehEntered="0"/>
    <interval begin="60.00" end="120.00" id="mainline_eval_6_2" nVehContrib="0" flow="0.00" occupancy="0.00" speed="-1.00" length="-1.00" nVehEntered="0"/>
    <interval begin="120.00" end="180.00" id="mainline_eval_0_0" nVehContrib="15" flow="900.00" occupancy="6.82" speed="18.41" length="5.00" nVehEntered="15"/>
    <interval begin="120.00" end="180.00" id="mainline_eval_0_1" nVehContrib="25" flow="1500.00" occupancy="10.77" speed="19.41" length="5.00" nVehEntered="25"/>
    <interval begin="120.00" end="180.00" id="mainline_eval_0_2" nVehContrib="32" flow="1920.00" occupancy="12.32" speed="21.66" length="5.00" nVehEntered="32"/>
    <interval begin="120.00" end="180.00" id="mainline_eval_1_0" nVehContrib="13" flow="780.00" occupancy="6.00" speed="18.11" length="5.00" nVehEntered="14"/>
    <interval begin="120.00" end="180.00" id="mainline_eval_1_1" nVehContrib="19" flow="1140.00" occupancy="9.82" speed="18.36" length="5.00" nVehEntered="20"/>
    <interval begin="120.00" end="180.00" id="mainline_eval_1_2" nVehContrib="37" flow="2220.00" occupancy="14.70" speed="21.47" length="5.00" nVehEntered="38"/>
    <interval begin="120.00" end="180.00" id="mainline_eval_2_0" nVehContrib="13" flow="780.00" occupancy="5.85" speed="18.64" length="5.00" nVehEntered="13"/>
    <interval begin="120.00" end="180.00" id="mainline_eval_2_1" nVehContrib="18" flow="1080.00" occupancy="7.32" speed="20.75" length="5.00" nVehEntered="18"/>
    <interval begin="120.00" end="180.00" id="mainline_eval_2_2" nVehContrib="32" flow="1920.00" occupancy="11.89" speed="22.55" length="5.00" nVehEntered="33"/>
    <interval begin="120.00" end="180.00" id="mainline_eval_3_0" nVehContrib="1" flow="60.00" occupancy="0.68" speed="12.20" length="5.00" nVehEntered="1"/>
    <interval begin="120.00" end="180.00" id="mainline_eval_3_1" nVehContrib="16" flow="960.00" occupancy="7.74" speed="17.46" length="5.00" nVehEntered="15"/>
    <interval begin="120.00" end="180.00" id="mainline_eval_3_2" nVehContrib="19" flow="1140.00" occupancy="7.43" speed="21.39" length="5.00" nVehEntered="19"/>
    <interval begin="120.00" end="180.00" id="mainline_eval_3_3" nVehContrib="25" flow="1500.00" occupancy="9.13" speed="22.84" length="5.00" nVehEntered="25"/>
    <interval begin="120.00" end="180.00" id="mainline_eval_4_0" nVehContrib="0" flow="0.00" occupancy="0.00" speed="-1.00" length="-1.00" nVehEntered="0"/>
    <interval begin="120.00" end="180.00" id="mainline_eval_4_1" nVehContrib="16" flow="960.00" occupancy="7.28" speed="18.48" length="5.00" nVehEntered="16"/>
    <interval begin="120.00" end="180.00" id="mainline_eval_4_2" nVehContrib="21" flow="1260.00" occupancy="7.88" speed="21.52" length="5.00" nVehEntered="20"/>
    <interval begin="120.00" end="180.00" id="mainline_eval_4_3" nVehContrib="25" flow="1500.00" occupancy="9.11" speed="22.89" length="5.00" nVehEntered="25"/>
    <interval begin="120.00" end="180.00" id="mainline_eval_5_0" nVehContrib="13" flow="780.00" occupancy="5.46" speed="19.98" length="5.00" nVehEntered="13"/>
    <interval begin="120.00" end="180.00" id="mainline_eval_5_1" nVehContrib="16" flow="960.00" occupancy="6.13" speed="21.84" length="5.00" nVehEntered="16"/>
    <interval begin="120.00" end="180.00" id="mainline_eval_5_2" nVehContrib="22" flow="1320.00" occupancy="8.09" speed="22.69" length="5.00" nVehEntered="22"/>
    <interval begin="120.00" end="180.00" id="mainline_eval_6_0" nVehContrib="13" flow="780.00" occupancy="5.38" speed="20.21" length="5.00" nVehEntered="13"/>
    <interval begin="120.00" end="180.00" id="mainline_eval_6_1" nVehContrib="16" flow="960.00" occupancy="6.11" speed="21.94" length="5.00" nVehEntered="16"/>
    <interval begin="120.00" end="180.00" id="mainline_eval_6_2" nVehContrib="21" flow="1260.00" occupancy="7.73" speed="22.68" length="5.00" nVehEntered="21"/>
    <interval begin="180.00" end="240.00" id="mainline_eval_0_0" nVehContrib="17" flow="1020.00" occupancy="7.89" speed="18.08" length="5.00" nVehEntered="17"/>
    <interval begin="180.00" end="240.00" id="mainline_eval_0_1" nVehContrib="25" flow="1500.00" occupancy="11.16" speed="18.95" length="5.00" nVehEntered="25"/>
    <interval begin="180.00" end="240.00" id="mainline_eval_0_2" nVehContrib="37" flow="2220.00" occupancy="14.80" speed="20.88" length="5.00" nVehEntered="37"/>
    <interval begin="180.00" end="240.00" id="mainline_eval_1_0" nVehContrib="16" flow="960.00" occupancy="7.28" speed="18.41" length="5.00" nVehEntered="16"/>
    <interval begin="180.00" end="240.00" id="mainline_eval_1_1" nVehContrib="24" flow="1440.00" occupancy="10.32" speed="19.44" length="5.00" nVehEntered="24"/>
    <interval begin="180.00" end="240.00" id="mainline_eval_1_2" nVehContrib="30" flow="1800.00" occupancy="11.39" speed="21.71" length="5.00" nVehEntered="30"/>
    <interval begin="180.00" end="240.00" id="mainline_eval_2_0" nVehContrib="15" flow="900.00" occupancy="6.76" speed="18.59" length="5.00" nVehEntered="15"/>
    <interval begin="180.00" end="240.00" id="mainline_eval_2_1" nVehContrib="25" flow="1500.00" occupancy="11.20" speed="19.17" length="5.00" nVehEntered="26"/>
    <interval begin="180.00" end="240.00" id="mainline_eval_2_2" nVehContrib="35" flow="2100.00" occupancy="13.45" speed="21.63" length="5.00" nVehEntered="34"/>
    <interval begin="180.00" end="240.00" id="mainline_eval_3_0" nVehContrib="5" flow="300.00" occupancy="4.36" speed="9.94" length="5.00" nVehEntered="5"/>
    <interval begin="180.00" end="240.00" id="mainline_eval_3_1" nVehContrib="30" flow="1800.00" occupancy="22.00" speed="11.97" length="5.00" nVehEntered="30"/>
    <interval begin="180.00" end="240.00" id="mainline_eval_3_2" nVehContrib="32" flow="1920.00" occupancy="13.91" speed="19.24" length="5.00" nVehEntered="32"/>
    <interval begin="180.00" end="240.00" id="mainline_eval_3_3" nVehContrib="35" flow="2100.00" occupancy="13.55" speed="21.54" length="5.00" nVehEntered="35"/>
    <interval begin="180.00" end="240.00" id="mainline_eval_4_0" nVehContrib="2" flow="120.00" occupancy="2.22" speed="7.53" length="5.00" nVehEntered="3"/>
    <interval begin="180.00" end="240.00" id="mainline_eval_4_1" nVehContrib="29" flow="1740.00" occupancy="18.75" speed="14.17" length="5.00" nVehEntered="29"/>
    <interval begin="180.00" end="240.00" id="mainline_eval_4_2" nVehContrib="31" flow="1860.00" occupancy="13.89" speed="18.77" length="5.00" nVehEntered="31"/>
    <interval begin="180.00" end="240.00" id="mainline_eval_4_3" nVehContrib="35" flow="2100.00" occupancy="13.52" speed="21.60" length="5.00" nVehEntered="35"/>
    <interval begin="180.00" end="240.00" id="mainline_eval_5_0" nVehContrib="26" flow="1560.00" occupancy="12.60" speed="17.29" length="5.00" nVehEntered="26"/>
    <interval begin="180.00" end="240.00" id="mainline_eval_5_1" nVehContrib="29" flow="1740.00" occupancy="13.04" speed="18.66" length="5.00" nVehEntered="29"/>
    <interval begin="180.00" end="240.00" id="mainline_eval_5_2" nVehContrib="33" flow="1980.00" occupancy="12.67" speed="21.73" length="5.00" nVehEntered="33"/>
    <interval begin="180.00" end="240.00" id="mainline_eval_6_0" nVehContrib="23" flow="1380.00" occupancy="10.95" speed="17.58" length="5.00" nVehEntered="23"/>
    <interval begin="180.00" end="240.00" id="mainline_eval_6_1" nVehContrib="29" flow="1740.00" occupancy="13.31" speed="18.29" length="5.00" nVehEntered="29"/>
    <interval begin="180.00" end="240.00" id="mainline_eval_6_2" nVehContrib="32" flow="1920.00" occupancy="12.21" speed="21.86" length="5.00" nVehEntered="32"/>
    <interval begin="240.00" end="300.00" id="mainline_eval_0_0" nVehContrib="17" flow="1020.00" occupancy="8.19" speed="17.47" length="5.00" nVehEntered="17"/>
    <interval begin="240.00" end="300.00" id="mainline_eval_0_1" nVehContrib="28" flow="1680.00" occupancy="11.63" speed="20.11" length="5.00" nVehEntered="29"/>
    <interval begin="240.00" end="300.00" id="mainline_eval_0_2" nVehContrib="34" flow="2040.00" occupancy="14.95" speed="20.69" length="5.00" nVehEntered="34"/>
    <interval begin="240.00" end="300.00" id="mainline_eval_1_0" nVehContrib="18" flow="1080.00" occupancy="8.26" speed="18.24" length="5.00" nVehEntered="18"/>
    <interval begin="240.00" end="300.00" id="mainline_eval_1_1" nVehContrib="29" flow="1740.00" occupancy="12.23" speed="19.71" length="5.00" nVehEntered="28"/>
    <interval begin="240.00" end="300.00" id="mainline_eval_1_2" nVehContrib="36" flow="2160.00" occupancy="14.45" speed="20.62" length="5.00" nVehEntered="35"/>
    <interval begin="240.00" end="300.00" id="mainline_eval_2_0" nVehContrib="18" flow="1080.00" occupancy="8.52" speed="18.35" length="5.00" nVehEntered="19"/>
    <interval begin="240.00" end="300.00" id="mainline_eval_2_1" nVehContrib="26" flow="1560.00" occupancy="10.75" speed="19.82" length="5.00" nVehEntered="25"/>
    <interval begin="240.00" end="300.00" id="mainline_eval_2_2" nVehContrib="32" flow="1920.00" occupancy="13.00" speed="20.62" length="5.00" nVehEntered="32"/>
    <interval begin="240.00" end="300.00" id="mainline_eval_3_0" nVehContrib="10" flow="600.00" occupancy="10.20" speed="9.72" length="5.00" nVehEntered="10"/>
    <interval begin="240.00" end="300.00" id="mainline_eval_3_1" nVehCon"19" flow="1140.00" occupancy="23.57" speed="8.44" length="5.00" nVehEntered="21"/>
    <interval begin="240.00" end="300.00" id="mainline_eval_3_2" nVehContrib="32" flow="1920.00" occupancy="24.71" speed="12.84" length="5.00" nVehEntered="32"/>
    <interval begin="240.00" end="300.00" id="mainline_eval_3_3" nVehContrib="35" flow="2100.00" occupancy="16.32" speed="19.11" length="5.00" nVehEntered="36"/>
    <interval begin="240.00" end="300.00" id="mainline_eval_4_0" nVehContrib="1" flow="60.00" occupancy="0.53" speed="15.69" length="5.00" nVehEntered="1"/>
    <interval begin="240.00" end="300.00" id="mainline_eval_4_1" nVehContrib="26" flow="1560.00" occupancy="17.75" speed="12.50" length="5.00" nVehEntered="26"/>
    <interval begin="240.00" end="300.00" id="mainline_eval_4_2" nVehContrib="31" flow="1860.00" occupancy="17.76" speed="15.54" length="5.00" nVehEntered="31"/>
    <interval begin="240.00" end="300.00" id="mainline_eval_4_3" nVehContrib="36" flow="2160.00" occupancy="15.99" speed="19.34" length="5.00" nVehEntered="36"/>
    <interval begin="240.00" end="300.00" id="mainline_eval_5_0" nVehContrib="29" flow="1740.00" occupancy="13.97" speed="17.43" length="5.00" nVehEntered="29"/>
    <interval begin="240.00" end="300.00" id="mainline_eval_5_1" nVehContrib="29" flow="1740.00" occupancy="13.87" speed="17.57" length="5.00" nVehEntered="30"/>
    <interval begin="240.00" end="300.00" id="mainline_eval_5_2" nVehContrib="36" flow="2160.00" occupancy="16.41" speed="20.01" length="5.00" nVehEntered="37"/>
    <interval begin="240.00" end="300.00" id="mainline_eval_6_0" nVehContrib="26" flow="1560.00" occupancy="12.91" speed="16.96" length="5.00" nVehEntered="26"/>
    <interval begin="240.00" end="300.00" id="mainline_eval_6_1" nVehContrib="32" flow="1920.00" occupancy="14.62" speed="18.08" length="5.00" nVehEntered="31"/>
    <interval begin="240.00" end="300.00" id="mainline_eval_6_2" nVehContrib="34" flow="2040.00" occupancy="13.75" speed="20.65" length="5.00" nVehEntered="34"/>
6"/>
    <interval begin="300.00" end="360.00" id="mainline_eval_0_0" nVehContrib="16" flow="960.00" occupancy="7.52" speed="18.65" length="5.00" nVehEntered="17"/>
    <interval begin="300.00" end="360.00" id="mainline_eval_0_1" nVehContrib="28" flow="1680.00" occupancy="12.07" speed="19.47" length="5.00" nVehEntered="28"/>
    <interval begin="300.00" end="360.00" id="mainline_eval_0_2" nVehContrib="36" flow="2160.00" occupancy="15.19" speed="19.93" length="5.00" nVehEntered="36"/>
    <interval begin="300.00" end="360.00" id="mainline_eval_1_0" nVehContrib="16" flow="960.00" occupancy="10.98" speed="13.63" length="5.00" nVehEntered="17"/>
    <interval begin="300.00" end="360.00" id="mainline_eval_1_1" nVehContrib="25" flow="1500.00" occupancy="14.72" speed="15.07" length="5.00" nVehEntered="25"/>
    <interval begin="300.00" end="360.00" id="mainline_eval_1_2" nVehContrib="28" flow="1680.00" occupancy="17.80" speed="14.00" length="5.00" nVehEntered="28"/>
    <interval begin="300.00" end="360.00" id="mainline_eval_2_0" nVehContrib="19" flow="1140.00" occupancy="11.56" speed="14.10" length="5.00" nVehEntered="18"/>
    <interval begin="300.00" end="360.00" id="mainline_eval_2_1" nVehContrib="24" flow="1440.00" occupancy="13.77" speed="15.76" length="5.00" nVehEntered="24"/>
    <interval begin="300.00" end="360.00" id="mainline_eval_2_2" nVehContrib="20" flow="1200.00" occupancy="11.43" speed="16.09" length="5.00" nVehEntered="20"/>
    <interval begin="300.00" end="360.00" id="mainline_eval_3_0" nVehContrib="2" flow="120.00" occupancy="1.51" speed="11.18" length="5.00" nVehEntered="3"/>
    <interval begin="300.00" end="360.00" id="mainline_eval_3_1" nVehContrib="27" flow="1620.00" occupancy="26.45" speed="9.55" length="5.00" nVehEntered="26"/>
    <interval begin="300.00" end="360.00" id="mainline_eval_3_2" nVehContrib="26" flow="1560.00" occupancy="17.35" speed="13.31" length="5.00" nVehEntered="26"/>
    <interval begin="300.00" end="360.00" id="mainline_eval_3_3" nVehContrib="22" flow="1320.00" occupancy="12.04" speed="16.18" length="5.00" nVehEntered="22"/>
    <interval begin="300.00" end="360.00" id="mainline_eval_4_0" nVehContrib="0" flow="0.00" occupancy="0.00" speed="-1.00" length="-1.00" nVehEntered="0"/>
    <interval begin="300.00" end="360.00" id="mainline_eval_4_1" nVehContrib="28" flow="1680.00" occupancy="18.05" speed="13.02" length="5.00" nVehEntered="27"/>
    <interval begin="300.00" end="360.00" id="mainline_eval_4_2" nVehContrib="28" flow="1680.00" occupancy="15.90" speed="15.07" length="5.00" nVehEntered="28"/>
    <interval begin="300.00" end="360.00" id="mainline_eval_4_3" nVehContrib="22" flow="1320.00" occupancy="10.28" speed="18.14" length="5.00" nVehEntered="22"/>
    <interval begin="300.00" end="360.00" id="mainline_eval_5_0" nVehContrib="27" flow="1620.00" occupancy="11.92" speed="18.97" length="5.00" nVehEntered="27"/>
    <interval begin="300.00" end="360.00" id="mainline_eval_5_1" nVehContrib="30" flow="1800.00" occupancy="13.11" speed="19.50" length="5.00" nVehEntered="31"/>
    <interval begin="300.00" end="360.00" id="mainline_eval_5_2" nVehContrib="24" flow="1440.00" occupancy="9.91" speed="20.25" length="5.00" nVehEntered="24"/>
    <interval begin="300.00" end="360.00" id="mainline_eval_6_0" nVehContrib="27" flow="1620.00" occupancy="12.02" speed="18.80" length="5.00" nVehEntered="27"/>
    <interval begin="300.00" end="360.00" id="mainline_eval_6_1" nVehContrib="30" flow="1800.00" occupancy="12.82" speed="19.53" length="5.00" nVehEntered="30"/>
    <interval begin="300.00" end="360.00" id="mainline_eval_6_2" nVehContrib="27" flow="1620.00" occupancy="10.80" speed="20.87" length="5.00" nVehEntered="27"/>
    <interval begin="360.00" end="420.00" id="mainline_eval_0_0" nVehContrib="20" flow="1200.00" occupancy="9.80" speed="17.25" length="5.00" nVehEntered="20"/>
    <interval begin="360.00" end="420.00" id="mainline_eval_0_1" nVehContrib="25" flow="1500.00" occupancy="11.17" speed="19.15" length="5.00" nVehEntered="26"/>
    <interval begin="360.00" end="420.00" id="mainline_eval_0_2" nVehContrib="31" flow="1860.00" occupancy="13.28" speed="19.84" length="5.00" nVehEntered="32"/>
    <interval begin="360.00" end="420.00" id="mainline_eval_1_0" nVehContrib="18" flow="1080.00" occupancy="9.80" speed="15.02" length="5.00" nVehEntered="17"/>
    <interval begin="360.00" end="420.00" id="mainline_eval_1_1" nVehContrib="28" flow="1680.00" occupancy="16.28" speed="14.91" length="5.00" nVehEntered="29"/>
    <interval begin="360.00" end="420.00" id="mainline_eval_1_2" nVehContrib="34" flow="2040.00" occupancy="20.97" speed="13.90" length="5.00" nVehEntered="34"/>
    <interval begin="360.00" end="420.00" id="mainline_eval_2_0" nVehContrib="26" flow="1560.00" occupancy="14.59" speed="15.81" length="5.00" nVehEntered="27"/>
    <interval begin="360.00" end="420.00" id="mainline_eval_2_1" nVehContrib="26" flow="1560.00" occupancy="14.13" speed="16.12" length="5.00" nVehEntered="26"/>
    <interval begin="360.00" end="420.00" id="mainline_eval_2_2" nVehContrib="30" flow="1800.00" occupancy="15.33" speed="17.04" length="5.00" nVehEntered="30"/>
    <interval begin="360.00" end="420.00" id="mainline_eval_3_0" nVehContrib="13" flow="780.00" occupancy="23.96" speed="8.95" length="5.00" nVehEntered="13"/>
    <interval begin="360.00" end="420.00" id="mainline_eval_3_1" nVehContrib="19" flow="1140.00" occupancy="33.46" speed="8.23" length="5.00" nVehEntered="19"/>
    <interval begin="360.00" end="420.00" id="mainline_eval_3_2" nVehContrib="29" flow="1740.00" occupancy="18.52" speed="14.60" length="5.00" nVehEntered="30"/>
    <interval begin="360.00" end="420.00" id="mainline_eval_3_3" nVehContrib="24" flow="1440.00" occupancy="11.73" speed="18.23" length="5.00" nVehEntered="25"/>
    <interval begin="360.00" end="420.00" id="mainline_eval_4_0" nVehContrib="4" flow="240.00" occupancy="4.72" speed="8.91" length="5.00" nVehEntered="4"/>
    <interval begin="360.00" end="420.00" id="mainline_eval_4_1" nVehContrib="22" flow="1320.00" occupancy="15.47" speed="12.40" length="5.00" nVehEntered="22"/>
    <interval begin="360.00" end="420.00" id="mainline_eval_4_2" nVehContrib="32" flow="1920.00" occupancy="18.75" speed="16.86" length="5.00" nVehEntered="32"/>
    <interval begin="360.00" end="420.00" id="mainline_eval_4_3" nVehContrib="25" flow="1500.00" occupancy="10.75" speed="19.59" length="5.00" nVehEntered="25"/>
    <interval begin="360.00" end="420.00" id="mainline_eval_5_0" nVehContrib="29" flow="1740.00" occupancy="12.81" speed="19.01" length="5.00" nVehEntered="29"/>
    <interval begin="360.00" end="420.00" id="mainline_eval_5_1" nVehContrib="29" flow="1740.00" occupancy="11.37" speed="20.83" length="5.00" nVehEntered="28"/>
    <interval begin="360.00" end="420.00" id="mainline_eval_5_2" nVehContrib="24" flow="1440.00" occupancy="9.21" speed="21.71" length="5.00" nVehEntered="24"/>
    <interval begin="360.00" end="420.00" id="mainline_eval_6_0" nVehContrib="30" flow="1800.00" occupancy="13.05" speed="19.29" length="5.00" nVehEntered="30"/>
    <interval begin="360.00" end="420.00" id="mainline_eval_6_1" nVehContrib="27" flow="1620.00" occupancy="10.83" speed="20.81" length="5.00" nVehEntered="27"/>
    <interval begin="360.00" end="420.00" id="mainline_eval_6_2" nVehContrib="21" flow="1260.00" occupancy="8.07" speed="21.68" length="5.00" nVehEntered="21"/>
    <interval begin="420.00" end="480.00" id="mainline_eval_0_0" nVehContrib="17" flow="1020.00" occupancy="7.20" speed="18.68" length="5.00" nVehEntered="16"/>
    <interval begin="420.00" end="480.00" id="mainline_eval_0_1" nVehContrib="24" flow="1440.00" occupancy="10.04" speed="19.55" length="5.00" nVehEntered="23"/>
    <interval begin="420.00" end="480.00" id="mainline_eval_0_2" nVehContrib="31" flow="1860.00" occupancy="12.83" speed="20.06" length="5.00" nVehEntered="31"/>
    <interval begin="420.00" end="480.00" id="mainline_eval_1_0" nVehContrib="20" flow="1200.00" occupancy="10.11" speed="16.53" length="5.00" nVehEntered="20"/>
    <interval begin="420.00" end="480.00" id="mainline_eval_1_1" nVehContrib="27" flow="1620.00" occupancy="13.66" speed="16.34" length="5.00" nVehEntered="26"/>
    <interval begin="420.00" end="480.00" id="mainline_eval_1_2" nVehContrib="35" flow="2100.00" occupancy="17.85" speed="16.36" length="5.00" nVehEntered="35"/>
    <interval begin="420.00" end="480.00" id="mainline_eval_2_0" nVehContrib="22" flow="1320.00" occupancy="11.84" speed="15.54" length="5.00" nVehEntered="21"/>
    <interval begin="420.00" end="480.00" id="mainline_eval_2_1" nVehContrib="28" flow="1680.00" occupancy="14.39" speed="16.44" length="5.00" nVehEntered="28"/>
    <interval begin="420.00" end="480.00" id="mainline_eval_2_2" nVehContrib="34" flow="2040.00" occupancy="16.85" speed="17.01" length="5.00" nVehEntered="34"/>
    <interval begin="420.00" end="480.00" id="mainline_eval_3_0" nVehContrib="11" flow="660.00" occupancy="14.96" speed="8.64" length="5.00" nVehEntered="11"/>
    <interval begin="420.00" end="480.00" id="mainline_eval_3_1" nVehContrib="18" flow="1080.00" occupancy="41.11" speed="6.91" length="5.00" nVehEntered="19"/>
    <interval begin="420.00" end="480.00" id="mainline_eval_3_2" nVehContrib="27" flow="1620.00" occupancy="33.33" speed="8.55" length="5.00" nVehEntered="27"/>
    <interval begin="420.00" end="480.00" id="mainline_eval_3_3" nVehContrib="37" flow="2220.00" occupancy="18.18" speed="16.94" length="5.00" nVehEntered="36"/>
    <interval begin="420.00" end="480.00" id="mainline_eval_4_0" nVehContrib="2" flow="120.00" occupancy="1.65" speed="10.13" length="5.00" nVehEntered="4"/>
    <interval begin="420.00" end="480.00" id="mainline_eval_4_1" nVehContrib="28" flow="1680.00" occupancy="28.40" speed="9.32" length="5.00" nVehEntered="28"/>
    <interval begin="420.00" end="480.00" id="mainline_eval_4_2" nVehContrib="28" flow="1680.00" occupancy="20.48" speed="11.93" length="5.00" nVehEntered="28"/>
    <interval begin="420.00" end="480.00" id="mainline_eval_4_3" nVehContrib="37" flow="2220.00" occupancy="16.86" speed="18.55" length="5.00" nVehEntered="37"/>
    <interval begin="420.00" end="480.00" id="mainline_eval_5_0" nVehContrib="30" flow="1800.00" occupancy="12.97" speed="19.34" length="5.00" nVehEntered="30"/>
    <interval begin="420.00" end="480.00" id="mainline_eval_5_1" nVehContrib="26" flow="1560.00" occupancy="11.12" speed="19.55" length="5.00" nVehEntered="26"/>
    <interval begin="420.00" end="480.00" id="mainline_eval_5_2" nVehContrib="37" flow="2220.00" occupancy="14.62" speed="21.12" length="5.00" nVehEntered="37"/>