<?xml version="1.0" encoding="UTF-8"?>

<!-- generated on 02/24/19 12:03:57 by Eclipse SUMO Version 1.0.1
<configuration xmlns:xsi="http://www.w3.org/2001/XMLSchema-instance" xsi:noNamespaceSchemaLocation="http://sumo.dlr.de/xsd/sumoConfiguration.xsd">

    <input>
        <net-file value="./project/ramp.net.xml"/>
        <route-files value="./project/ramp.rou.xml"/>
        <additional-files value="./project/ramp.add.xml"/>
    </input>

    <time>
        <begin value="0"/>
    </time>

    <report>
        <verbose value="true"/>
        <no-step-log value="true"/>
    </report>

    <traci_server>
        <remote-port value="51017"/>
    </traci_server>

    <random_number>
        <seed value="1288424167"/>
    </random_number>

    <gui_only>
        <quit-on-end value="true"/>
        <start value="true"/>
    </gui_only>

</configuration>
-->

<detector xmlns:xsi="http://www.w3.org/2001/XMLSchema-instance" xsi:noNamespaceSchemaLocation="http://sumo.dlr.de/xsd/det_e1_file.xsd">
    <interval begin="0.00" end="60.00" id="mainline_eval_0_0" nVehContrib="0" flow="0.00" occupancy="0.00" speed="-1.00" length="-1.00" nVehEntered="0"/>
    <interval begin="0.00" end="60.00" id="mainline_eval_0_1" nVehContrib="0" flow="0.00" occupancy="0.00" speed="-1.00" length="-1.00" nVehEntered="0"/>
    <interval begin="0.00" end="60.00" id="mainline_eval_0_2" nVehContrib="0" flow="0.00" occupancy="0.00" speed="-1.00" length="-1.00" nVehEntered="0"/>
    <interval begin="0.00" end="60.00" id="mainline_eval_1_0" nVehContrib="0" flow="0.00" occupancy="0.00" speed="-1.00" length="-1.00" nVehEntered="0"/>
    <interval begin="0.00" end="60.00" id="mainline_eval_1_1" nVehContrib="0" flow="0.00" occupancy="0.00" speed="-1.00" length="-1.00" nVehEntered="0"/>
    <interval begin="0.00" end="60.00" id="mainline_eval_1_2" nVehContrib="0" flow="0.00" occupancy="0.00" speed="-1.00" length="-1.00" nVehEntered="0"/>
    <interval begin="0.00" end="60.00" id="mainline_eval_2_0" nVehContrib="0" flow="0.00" occupancy="0.00" speed="-1.00" length="-1.00" nVehEntered="0"/>
    <interval begin="0.00" end="60.00" id="mainline_eval_2_1" nVehContrib="0" flow="0.00" occupancy="0.00" speed="-1.00" length="-1.00" nVehEntered="0"/>
    <interval begin="0.00" end="60.00" id="mainline_eval_2_2" nVehContrib="0" flow="0.00" occupancy="0.00" speed="-1.00" length="-1.00" nVehEntered="0"/>
    <interval begin="0.00" end="60.00" id="mainline_eval_3_0" nVehContrib="0" flow="0.00" occupancy="0.00" speed="-1.00" length="-1.00" nVehEntered="0"/>
    <interval begin="0.00" end="60.00" id="mainline_eval_3_1" nVehContrib="0" flow="0.00" occupancy="0.00" speed="-1.00" length="-1.00" nVehEntered="0"/>
    <interval begin="0.00" end="60.00" id="mainline_eval_3_2" nVehContrib="0" flow="0.00" occupancy="0.00" speed="-1.00" length="-1.00" nVehEntered="0"/>
    <interval begin="0.00" end="60.00" id="mainline_eval_3_3" nVehContrib="0" flow="0.00" occupancy="0.00" speed="-1.00" length="-1.00" nVehEntered="0"/>
    <interval begin="0.00" end="60.00" id="mainline_eval_4_0" nVehContrib="0" flow="0.00" occupancy="0.00" speed="-1.00" length="-1.00" nVehEntered="0"/>
    <interval begin="0.00" end="60.00" id="mainline_eval_4_1" nVehContrib="0" flow="0.00" occupancy="0.00" speed="-1.00" length="-1.00" nVehEntered="0"/>
    <interval begin="0.00" end="60.00" id="mainline_eval_4_2" nVehContrib="0" flow="0.00" occupancy="0.00" speed="-1.00" length="-1.00" nVehEntered="0"/>
    <interval begin="0.00" end="60.00" id="mainline_eval_4_3" nVehContrib="0" flow="0.00" occupancy="0.00" speed="-1.00" length="-1.00" nVehEntered="0"/>
    <interval begin="0.00" end="60.00" id="mainline_eval_5_0" nVehContrib="0" flow="0.00" occupancy="0.00" speed="-1.00" length="-1.00" nVehEntered="0"/>
    <interval begin="0.00" end="60.00" id="mainline_eval_5_1" nVehContrib="0" flow="0.00" occupancy="0.00" speed="-1.00" length="-1.00" nVehEntered="0"/>
    <interval begin="0.00" end="60.00" id="mainline_eval_5_2" nVehContrib="0" flow="0.00" occupancy="0.00" speed="-1.00" length="-1.00" nVehEntered="0"/>
    <interval begin="0.00" end="60.00" id="mainline_eval_6_0" nVehContrib="0" flow="0.00" occupancy="0.00" speed="-1.00" length="-1.00" nVehEntered="0"/>
    <interval begin="0.00" end="60.00" id="mainline_eval_6_1" nVehContrib="0" flow="0.00" occupancy="0.00" speed="-1.00" length="-1.00" nVehEntered="0"/>
    <interval begin="0.00" end="60.00" id="mainline_eval_6_2" nVehContrib="0" flow="0.00" occupancy="0.00" speed="-1.00" length="-1.00" nVehEntered="0"/>
    <interval begin="60.00" end="120.00" id="mainline_eval_0_0" nVehContrib="11" flow="660.00" occupancy="5.07" speed="18.19" length="5.00" nVehEntered="11"/>
    <interval begin="60.00" end="120.00" id="mainline_eval_0_1" nVehContrib="21" flow="1260.00" occupancy="9.43" speed="18.86" length="5.00" nVehEntered="21"/>
    <interval begin="60.00" end="120.00" id="mainline_eval_0_2" nVehContrib="24" flow="1440.00" occupancy="9.56" speed="21.06" length="5.00" nVehEntered="24"/>
    <interval begin="60.00" end="120.00" id="mainline_eval_1_0" nVehContrib="8" flow="480.00" occupancy="3.44" speed="19.49" length="5.00" nVehEntered="8"/>
    <interval begin="60.00" end="120.00" id="mainline_eval_1_1" nVehContrib="8" flow="480.00" occupancy="2.99" speed="22.36" length="5.00" nVehEntered="8"/>
    <interval begin="60.00" end="120.00" id="mainline_eval_1_2" nVehContrib="8" flow="480.00" occupancy="2.92" speed="22.86" length="5.00" nVehEntered="8"/>
    <interval begin="60.00" end="120.00" id="mainline_eval_2_0" nVehContrib="5" flow="300.00" occupancy="1.99" speed="21.04" length="5.00" nVehEntered="5"/>
    <interval begin="60.00" end="120.00" id="mainline_eval_2_1" nVehContrib="4" flow="240.00" occupancy="1.46" speed="22.77" length="5.00" nVehEntered="4"/>
    <interval begin="60.00" end="120.00" id="mainline_eval_2_2" nVehContrib="4" flow="240.00" occupancy="1.46" speed="22.89" length="5.00" nVehEntered="4"/>
    <interval begin="60.00" end="120.00" id="mainline_eval_3_0" nVehContrib="0" flow="0.00" occupancy="0.00" speed="-1.00" length="-1.00" nVehEntered="0"/>
    <interval begin="60.00" end="120.00" id="mainline_eval_3_1" nVehContrib="4" flow="240.00" occupancy="1.55" speed="21.55" length="5.00" nVehEntered="4"/>
    <interval begin="60.00" end="120.00" id="mainline_eval_3_2" nVehContrib="1" flow="60.00" occupancy="0.37" speed="22.23" length="5.00" nVehEntered="1"/>
    <interval begin="60.00" end="120.00" id="mainline_eval_3_3" nVehContrib="2" flow="120.00" occupancy="0.74" speed="22.48" length="5.00" nVehEntered="2"/>
    <interval begin="60.00" end="120.00" id="mainline_eval_4_0" nVehContrib="0" flow="0.00" occupancy="0.00" speed="-1.00" length="-1.00" nVehEntered="0"/>
    <interval begin="60.00" end="120.00" id="mainline_eval_4_1" nVehContrib="4" flow="240.00" occupancy="1.56" speed="21.44" length="5.00" nVehEntered="4"/>
    <interval begin="60.00" end="120.00" id="mainline_eval_4_2" nVehContrib="1" flow="60.00" occupancy="0.37" speed="22.23" length="5.00" nVehEntered="1"/>
    <interval begin="60.00" end="120.00" id="mainline_eval_4_3" nVehContrib="0" flow="0.00" occupancy="0.00" speed="-1.00" length="-1.00" nVehEntered="0"/>
    <interval begin="60.00" end="120.00" id="mainline_eval_5_0" nVehContrib="1" flow="60.00" occupancy="0.35" speed="23.58" length="5.00" nVehEntered="1"/>
    <interval begin="60.00" end="120.00" id="mainline_eval_5_1" nVehContrib="0" flow="0.00" occupancy="0.00" speed="-1.00" length="-1.00" nVehEntered="0"/>
    <interval begin="60.00" end="120.00" id="mainline_eval_5_2" nVehContrib="0" flow="0.00" occupancy="0.00" speed="-1.00" length="-1.00" nVehEntered="0"/>
    <interval begin="60.00" end="120.00" id="mainline_eval_6_0" nVehContrib="0" flow="0.00" occupancy="0.00" speed="-1.00" length="-1.00" nVehEntered="0"/>
    <interval begin="60.00" end="120.00" id="mainline_eval_6_1" nVehContrib="0" flow="0.00" occupancy="0.00" speed="-1.00" length="-1.00" nVehEntered="0"/>
    <interval begin="60.00" end="120.00" id="mainline_eval_6_2" nVehContrib="0" flow="0.00" occupancy="0.00" speed="-1.00" length="-1.00" nVehEntered="0"/>
    <interval begin="120.00" end="180.00" id="mainline_eval_0_0" nVehContrib="12" flow="720.00" occupancy="5.37" speed="18.67" length="5.00" nVehEntered="12"/>
    <interval begin="120.00" end="180.00" id="mainline_eval_0_1" nVehContrib="27" flow="1620.00" occupancy="11.84" speed="19.72" length="5.00" nVehEntered="28"/>
    <interval begin="120.00" end="180.00" id="mainline_eval_0_2" nVehContrib="35" flow="2100.00" occupancy="13.65" speed="21.45" length="5.00" nVehEntered="35"/>
    <interval begin="120.00" end="180.00" id="mainline_eval_1_0" nVehContrib="17" flow="1020.00" occupancy="7.72" speed="18.38" length="5.00" nVehEntered="17"/>
    <interval begin="120.00" end="180.00" id="mainline_eval_1_1" nVehContrib="28" flow="1680.00" occupancy="12.10" speed="19.40" length="5.00" nVehEntered="28"/>
    <interval begin="120.00" end="180.00" id="mainline_eval_1_2" nVehContrib="34" flow="2040.00" occupancy="13.34" speed="21.29" length="5.00" nVehEntered="34"/>
    <interval begin="120.00" end="180.00" id="mainline_eval_2_0" nVehContrib="14" flow="840.00" occupancy="6.65" speed="17.63" length="5.00" nVehEntered="14"/>
    <interval begin="120.00" end="180.00" id="mainline_eval_2_1" nVehContrib="24" flow="1440.00" occupancy="11.35" speed="17.76" length="5.00" nVehEntered="24"/>
    <interval begin="120.00" end="180.00" id="mainline_eval_2_2" nVehContrib="30" flow="1800.00" occupancy="11.57" speed="21.64" length="5.00" nVehEntered="30"/>
    <interval begin="120.00" end="180.00" id="mainline_eval_3_0" nVehContrib="5" flow="300.00" occupancy="7.63" speed="6.39" length="5.00" nVehEntered="5"/>
    <interval begin="120.00" end="180.00" id="mainline_eval_3_1" nVehContrib="16" flow="960.00" occupancy="11.97" speed="12.47" length="5.00" nVehEntered="16"/>
    <interval begin="120.00" end="180.00" id="mainline_eval_3_2" nVehContrib="21" flow="1260.00" occupancy="10.10" speed="18.68" length="5.00" nVehEntered="22"/>
    <interval begin="120.00" end="180.00" id="mainline_eval_3_3" nVehContrib="24" flow="1440.00" occupancy="9.36" speed="21.44" length="5.00" nVehEntered="24"/>
    <interval begin="120.00" end="180.00" id="mainline_eval_4_0" nVehContrib="1" flow="60.00" occupancy="0.99" speed="8.38" length="5.00" nVehEntered="1"/>
    <interval begin="120.00" end="180.00" id="mainline_eval_4_1" nVehContrib="15" flow="900.00" occupancy="8.60" speed="15.19" length="5.00" nVehEntered="15"/>
    <interval begin="120.00" end="180.00" id="mainline_eval_4_2" nVehContrib="19" flow="1140.00" occupancy="8.71" speed="18.57" length="5.00" nVehEntered="19"/>
    <interval begin="120.00" end="180.00" id="mainline_eval_4_3" nVehContrib="25" flow="1500.00" occupancy="9.61" speed="21.74" length="5.00" nVehEntered="25"/>
    <interval begin="120.00" end="180.00" id="mainline_eval_5_0" nVehContrib="12" flow="720.00" occupancy="4.99" speed="20.19" length="5.00" nVehEntered="12"/>
    <interval begin="120.00" end="180.00" id="mainline_eval_5_1" nVehContrib="11" flow="660.00" occupancy="4.61" speed="20.19" length="5.00" nVehEntered="11"/>
    <interval begin="120.00" end="180.00" id="mainline_eval_5_2" nVehContrib="18" flow="1080.00" occupancy="6.98" speed="22.00" length="5.00" nVehEntered="19"/>
    <interval begin="120.00" end="180.00" id="mainline_eval_6_0" nVehContrib="11" flow="660.00" occupancy="4.46" speed="20.66" length="5.00" nVehEntered="11"/>
    <interval begin="120.00" end="180.00" id="mainline_eval_6_1" nVehContrib="8" flow="480.00" occupancy="3.14" speed="21.40" length="5.00" nVehEntered="8"/>
    <interval begin="120.00" end="180.00" id="mainline_eval_6_2" nVehContrib="16" flow="960.00" occupancy="6.04" speed="22.13" length="5.00" nVehEntered="16"/>
    <interval begin="180.00" end="240.00" id="mainline_eval_0_0" nVehContrib="16" flow="960.00" occupancy="7.64" speed="17.78" length="5.00" nVehEntered="17"/>
    <interval begin="180.00" end="240.00" id="mainline_eval_0_1" nVehContrib="26" flow="1560.00" occupancy="11.04" speed="19.03" length="5.00" nVehEntered="25"/>
    <interval begin="180.00" end="240.00" id="mainline_eval_0_2" nVehContrib="28" flow="1680.00" occupancy="11.31" speed="20.67" length="5.00" nVehEntered="28"/>
    <interval begin="180.00" end="240.00" id="mainline_eval_1_0" nVehContrib="13" flow="780.00" occupancy="5.98" speed="18.37" length="5.00" nVehEntered="13"/>
    <interval begin="180.00" end="240.00" id="mainline_eval_1_1" nVehContrib="28" flow="1680.00" occupancy="13.41" speed="19.31" length="5.00" nVehEntered="28"/>
    <interval begin="180.00" end="240.00" id="mainline_eval_1_2" nVehContrib="26" flow="1560.00" occupancy="9.89" speed="21.95" length="5.00" nVehEntered="27"/>
    <interval begin="180.00" end="240.00" id="mainline_eval_2_0" nVehContrib="15" flow="900.00" occupancy="8.29" speed="17.70" length="5.00" nVehEntered="15"/>
    <interval begin="180.00" end="240.00" id="mainline_eval_2_1" nVehContrib="24" flow="1440.00" occupancy="9.91" speed="20.28" length="5.00" nVehEntered="25"/>
    <interval begin="180.00" end="240.00" id="mainline_eval_2_2" nVehContrib="27" flow="1620.00" occupancy="10.46" speed="21.56" length="5.00" nVehEntered="27"/>
    <interval begin="180.00" end="240.00" id="mainline_eval_3_0" nVehContrib="4" flow="240.00" occupancy="3.57" speed="9.87" length="5.00" nVehEntered="5"/>
    <interval begin="180.00" end="240.00" id="mainline_eval_3_1" nVehContrib="19" flow="1140.00" occupancy="22.73" speed="8.44" length="5.00" nVehEntered="20"/>
    <interval begin="180.00" end="240.00" id="mainline_eval_3_2" nVehContrib="32" flow="1920.00" occupancy="17.06" speed="15.47" length="5.00" nVehEntered="32"/>
    <interval begin="180.00" end="240.00" id="mainline_eval_3_3" nVehContrib="33" flow="1980.00" occupancy="21.63" speed="14.81" length="5.00" nVehEntered="33"/>
    <interval begin="180.00" end="240.00" id="mainline_eval_4_0" nVehContrib="1" flow="60.00" occupancy="1.86" speed="4.47" length="5.00" nVehEntered="1"/>
    <interval begin="180.00" end="240.00" id="mainline_eval_4_1" nVehContrib="25" flow="1500.00" occupancy="21.78" speed="11.36" length="5.00" nVehEntered="25"/>
    <interval begin="180.00" end="240.00" id="mainline_eval_4_2" nVehContrib="32" flow="1920.00" occupancy="17.56" speed="15.72" length="5.00" nVehEntered="32"/>
    <interval begin="180.00" end="240.00" id="mainline_eval_4_3" nVehContrib="34" flow="2040.00" occupancy="16.97" speed="17.48" length="5.00" nVehEntered="34"/>
    <interval begin="180.00" end="240.00" id="mainline_eval_5_0" nVehContrib="27" flow="1620.00" occupancy="12.84" speed="17.71" length="5.00" nVehEntered="27"/>
    <interval begin="180.00" end="240.00" id="mainline_eval_5_1" nVehContrib="33" flow="1980.00" occupancy="15.42" speed="18.01" length="5.00" nVehEntered="33"/>
    <interval begin="180.00" end="240.00" id="mainline_eval_5_2" nVehContrib="37" flow="2220.00" occupancy="14.66" speed="20.87" length="5.00" nVehEntered="36"/>
    <interval begin="180.00" end="240.00" id="mainline_eval_6_0" nVehContrib="27" flow="1620.00" occupancy="12.00" speed="18.83" length="5.00" nVehEntered="27"/>
    <interval begin="180.00" end="240.00" id="mainline_eval_6_1" nVehContrib="33" flow="1980.00" occupancy="14.49" speed="19.05" length="5.00" nVehEntered="33"/>
    <interval begin="180.00" end="240.00" id="mainline_eval_6_2" nVehContrib="35" flow="2100.00" occupancy="13.52" speed="21.62" length="5.00" nVehEntered="35"/>
    <interval begin="240.00" end="300.00" id="mainline_eval_0_0" nVehContrib="20" flow="1200.00" occupancy="10.44" speed="17.80" length="5.00" nVehEntered="19"/>
    <interval begin="240.00" end="300.00" id="mainline_eval_0_1" nVehContrib="32" flow="1920.00" occupancy="13.18" speed="20.29" length="5.00" nVehEntered="33"/>
    <interval begin="240.00" end="300.00" id="mainline_eval_0_2" nVehContrib="31" flow="1860.00" occupancy="12.29" speed="21.52" length="5.00" nVehEntered="32"/>
    <interval begin="240.00" end="300.00" id="mainline_eval_1_0" nVehContrib="24" flow="1440.00" occupancy="12.01" speed="16.82" length="5.00" nVehEntered="24"/>
    <interval begin="240.00" end="300.00" id="mainline_eval_1_1" nVehContrib="32" flow="1920.00" occupancy="14.18" speed="18.85" length="5.00" nVehEntered="32"/>
    <interval begin="240.00" end="300.00" id="mainline_eval_1_2" nVehContrib="35" flow="2100.00" occupancy="14.35" speed="20.42" length="5.00" nVehEntered="35"/>
    <interval begin="240.00" end="300.00" id="mainline_eval_2_0" nVehContrib="20" flow="1200.00" occupancy="10.10" speed="16.62" length="5.00" nVehEntered="20"/>
    <interval begin="240.00" end="300.00" id="mainline_eval_2_1" nVehContrib="30" flow="1800.00" occupancy="13.11" speed="19.12" length="5.00" nVehEntered="30"/>
    <interval begin="240.00" end="300.00" id="mainline_eval_2_2" nVehContrib="33" flow="1980.00" occupancy="13.83" speed="20.56" length="5.00" nVehEntered="34"/>
    <interval begin="240.00" end="300.00" id="mainline_eval_3_0" nVehContrib="7" flow="420.00" occupancy="5.29" speed="11.74" length="5.00" nVehEntered="9"/>
    <interval begin="240.00" end="300.00" id="mainline_eval_3_1" nVehContrib="24" flow="1440.00" occupancy="20.47" speed="11.67" length="5.00" nVehEntered="24"/>
    <interval begin="240.00" end="300.00" id="mainline_eval_3_2" nVehContrib="26" flow="1560.00" occupancy="15.87" speed="16.31" length="5.00" nVehEntered="27"/>
    <interval begin="240.00" end="300.00" id="mainline_eval_3_3" nVehContrib="36" flow="2160.00" occupancy="14.72" speed="20.52" length="5.00" nVehEntered="36"/>
    <interval begin="240.00" end="300.00" id="mainline_eval_4_0" nVehContrib="2" flow="120.00" occupancy="1.49" speed="11.17" length="5.00" nVehEntered="2"/>
    <interval begin="240.00" end="300.00" id="mainline_eval_4_1" nVehContrib="24" flow="1440.00" occupancy="14.61" speed="14.46" length="5.00" nVehEntered="24"/>
    <interval begin="240.00" end="300.00" id="mainline_eval_4_2" nVehContrib="28" flow="1680.00" occupancy="14.15" speed="17.11" length="5.00" nVehEntered="28"/>
    <interval begin="240.00" end="300.00" id="mainline_eval_4_3" nVehContrib="36" flow="2160.00" occupancy="14.66" speed="20.57" length="5.00" nVehEntered="36"/>
    <interval begin="240.00" end="300.00" id="mainline_eval_5_0" nVehContrib="24" flow="1440.00" occupancy="11.16" speed="18.08" length="5.00" nVehEntered="24"/>
    <interval begin="240.00" end="300.00" id="mainline_eval_5_1" nVehContrib="27" flow="1620.00" occupancy="12.75" speed="17.90" length="5.00" nVehEntered="27"/>
    <interval begin="240.00" end="300.00" id="mainline_eval_5_2" nVehContrib="36" flow="2160.00" occupancy="15.00" speed="20.41" length="5.00" nVehEntered="37"/>
    <interval begin="240.00" end="300.00" id="mainline_eval_6_0" nVehContrib="24" flow="1440.00" occupancy="10.86" speed="18.53" length="5.00" nVehEntered="24"/>
    <interval begin="240.00" end="300.00" id="mainline_eval_6_1" nVehContrib="27" flow="1620.00" occupancy="12.01" speed="19.31" length="5.00" nVehEntered="28"/>
    <interval begin="240.00" end="300.00" id="mainline_eval_6_2" nVehContrib="36" flow="2160.00" occupancy="14.35" speed="20.95" length="5.00" nVehEntered="36"/>
    <interval begin="300.00" end="360.00" id="mainline_eval_0_0" nVehContrib="21" flow="1260.00" occupancy="9.42" speed="18.68" length="5.00" nVehEntered="21"/>
    <interval begin="300.00" end="360.00" id="mainline_eval_0_1" nVehContrib="25" flow="1500.00" occupancy="10.93" speed="19.85" length="5.00" nVehEntered="26"/>
    <interval begin="300.00" end="360.00" id="mainline_eval_0_2" nVehContrib="32" flow="1920.00" occupancy="12.51" speed="20.98" length="5.00" nVehEntered="31"/>
    <interval begin="300.00" end="360.00" id="mainline_eval_1_0" nVehContrib="16" flow="960.00" occupancy="8.75" speed="15.81" length="5.00" nVehEntered="16"/>
    <interval begin="300.00" end="360.00" id="mainline_eval_1_1" nVehContrib="23" flow="1380.00" occupancy="11.28" speed="17.67" length="5.00" nVehEntered="23"/>
    <interval begin="300.00" end="360.00" id="mainline_eval_1_2" nVehContrib="25" flow="1500.00" occupancy="11.72" speed="18.84" length="5.00" nVehEntered="25"/>
    <interval begin="300.00" end="360.00" id="mainline_eval_2_0" nVehContrib="19" flow="1140.00" occupancy="9.80" speed="16.47" length="5.00" nVehEntered="19"/>
    <interval begin="300.00" end="360.00" id="mainline_eval_2_1" nVehContrib="26" flow="1560.00" occupancy="13.78" speed="17.21" length="5.00" nVehEntered="26"/>
    <interval begin="300.00" end="360.00" id="mainline_eval_2_2" nVehContrib="28" flow="1680.00" occupancy="12.79" speed="18.24" length="5.00" nVehEntered="28"/>
    <interval begin="300.00" end="360.00" id="mainline_eval_3_0" nVehContrib="5" flow="300.00" occupancy="3.68" speed="11.68" length="5.00" nVehEntered="6"/>
    <interval begin="300.00" end="360.00" id="mainline_eval_3_1" nVehContrib="21" flow="1260.00" occupancy="24.79" speed="8.33" length="5.00" nVehEntered="23"/>
    <interval begin="300.00" end="360.00" id="mainline_eval_3_2" nVehContrib="29" flow="1740.00" occupancy="21.28" speed="12.65" length="5.00" nVehEntered="29"/>
    <interval begin="300.00" end="360.00" id="mainline_eval_3_3" nVehContrib="32" flow="1920.00" occupancy="18.36" speed="16.02" length="5.00" nVehEntered="33"/>
    <interval begin="300.00" end="360.00" id="mainline_eval_4_0" nVehContrib="1" flow="60.00" occupancy="0.68" speed="12.31" length="5.00" nVehEntered="2"/>
    <interval begin="300.00" end="360.00" id="mainline_eval_4_1" nVehContrib="27" flow="1620.00" occupancy="20.83" speed="11.96" length="5.00" nVehEntered="27"/>
    <interval begin="300.00" end="360.00" id="mainline_eval_4_2" nVehContrib="32" flow="1920.00" occupancy="17.39" speed="15.70" length="5.00" nVehEntered="32"/>
    <interval begin="300.00" end="360.00" id="mainline_eval_4_3" nVehContrib="33" flow="1980.00" occupancy="15.17" speed="18.40" length="5.00" nVehEntered="33"/>
    <interval begin="300.00" end="360.00" id="mainline_eval_5_0" nVehContrib="32" flow="1920.00" occupancy="15.40" speed="17.46" length="5.00" nVehEntered="32"/>
    <interval begin="300.00" end="360.00" id="mainline_eval_5_1" nVehContrib="33" flow="1980.00" occupancy="15.44" speed="18.42" length="5.00" nVehEntered="34"/>
    <interval begin="300.00" end="360.00" id="mainline_eval_5_2" nVehContrib="34" flow="2040.00" occupancy="14.12" speed="19.81" length="5.00" nVehEntered="34"/>
    <interval begin="300.00" end="360.00" id="mainline_eval_6_0" nVehContrib="32" flow="1920.00" occupancy="15.62" speed="17.20" length="5.00" nVehEntered="32"/>
    <interval begin="300.00" end="360.00" id="mainline_eval_6_1" nVehContrib="35" flow="2100.00" occupancy="16.61" speed="17.52" length="5.00" nVehEntered="34"/>
    <interval begin="300.00" end="360.00" id="mainline_eval_6_2" nVehContrib="35" flow="2100.00" occupancy="14.96" speed="19.61" length="5.00" nVehEntered="35"/>
    <interval begin="360.00" end="420.00" id="mainline_eval_0_0" nVehContrib="15" flow="900.00" occupancy="6.97" speed="18.03" length="5.00" nVehEntered="15"/>
    <interval begin="360.00" end="420.00" id="mainline_eval_0_1" nVehContrib="31" flow="1860.00" occupancy="13.01" speed="19.32" length="5.00" nVehEntered="30"/>
    <interval begin="360.00" end="420.00" id="mainline_eval_0_2" nVehContrib="34" flow="2040.00" occupancy="14.58" speed="19.54" length="5.00" nVehEntered="34"/>
    <interval begin="360.00" end="420.00" id="mainline_eval_1_0" nVehContrib="19" flow="1140.00" occupancy="12.43" speed="14.04" length="5.00" nVehEntered="19"/>
    <interval begin="360.00" end="420.00" id="mainline_eval_1_1" nVehContrib="28" flow="1680.00" occupancy="15.60" speed="15.28" length="5.00" nVehEntered="29"/>
    <interval begin="360.00" end="420.00" id="mainline_eval_1_2" nVehContrib="33" flow="1980.00" occupancy="18.21" speed="15.52" length="5.00" nVehEntered="33"/>
    <interval begin="360.00" end="420.00" id="mainline_eval_2_0" nVehContrib="22" flow="1320.00" occupancy="11.89" speed="15.80" length="5.00" nVehEntered="22"/>
    <interval begin="360.00" end="420.00" id="mainline_eval_2_1" nVehContrib="23" flow="1380.00" occupancy="12.66" speed="15.69" length="5.00" nVehEntered="23"/>
    <interval begin="360.00" end="420.00" id="mainline_eval_2_2" nVehContrib="26" flow="1560.00" occupancy="13.82" speed="16.27" length="5.00" nVehEntered="26"/>
    <interval begin="360.00" end="420.00" id="mainline_eval_3_0" nVehContrib="9" flow="540.00" occupancy="7.81" speed="10.19" length="5.00" nVehEntered="11"/>
    <interval begin="360.00" end="420.00" id="mainline_eval_3_1" nVehContrib="23" flow="1380.00" occupancy="28.81" speed="9.44" length="5.00" nVehEntered="22"/>
    <interval begin="360.00" end="420.00" id="mainline_eval_3_2" nVehContrib="28" flow="1680.00" occupancy="19.37" speed="12.91" length="5.00" nVehEntered="28"/>
    <interval begin="360.00" end="420.00" id="mainline_eval_3_3" nVehContrib="29" flow="1740.00" occupancy="14.87" speed="17.40" length="5.00" nVehEntered="29"/>
    <interval begin="360.00" end="420.00" id="mainline_eval_4_0" nVehContrib="0" flow="0.00" occupancy="0.00" speed="-1.00" length="-1.00" nVehEntered="0"/>
    <interval begin="360.00" end="420.00" id="mainline_eval_4_1" nVehContrib="30" flow="1800.00" occupancy="20.19" speed="12.91" length="5.00" nVehEntered="30"/>
    <interval begin="360.00" end="420.00" id="mainline_eval_4_2" nVehContrib="25" flow="1500.00" occupancy="13.09" speed="16.20" length="5.00" nVehEntered="25"/>
    <interval begin="360.00" end="420.00" id="mainline_eval_4_3" nVehContrib="30" flow="1800.00" occupancy="12.92" speed="19.51" length="5.00" nVehEntered="30"/>
    <interval begin="360.00" end="420.00" id="mainline_eval_5_0" nVehContrib="24" flow="1440.00" occupancy="10.93" speed="18.37" length="5.00" nVehEntered="24"/>
    <interval begin="360.00" end="420.00" id="mainline_eval_5_1" nVehContrib="29" flow="1740.00" occupancy="12.50" speed="19.57" length="5.00" nVehEntered="29"/>
    <interval begin="360.00" end="420.00" id="mainline_eval_5_2" nVehContrib="30" flow="1800.00" occupancy="11.98" speed="20.83" length="5.00" nVehEntered="29"/>
    <interval begin="360.00" end="420.00" id="mainline_eval_6_0" nVehContrib="23" flow="1380.00" occupancy="10.55" speed="18.29" length="5.00" nVehEntered="23"/>
    <interval begin="360.00" end="420.00" id="mainline_eval_6_1" nVehContrib="28" flow="1680.00" occupancy="12.30" speed="19.17" length="5.00" nVehEntered="28"/>
    <interval begin="360.00" end="420.00" id="mainline_eval_6_2" nVehContrib="30" flow="1800.00" occupancy="12.06" speed="20.79" length="5.00" nVehEntered="30"/>
    <interval begin="420.00" end="480.00" id="mainline_eval_0_0" nVehContrib="16" flow="960.00" occupancy="7.39" speed="18.22" length="5.00" nVehEntered="16"/>
    <interval begin="420.00" end="480.00" id="mainline_eval_0_1" nVehContrib="27" flow="1620.00" occupancy="11.24" speed="20.07" length="5.00" nVehEntered="27"/>
    <interval begin="420.00" end="480.00" id="mainline_eval_0_2" nVehContrib="33" flow="1980.00" occupancy="13.39" speed="20.61" length="5.00" nVehEntered="33"/>
    <interval begin="420.00" end="480.00" id="mainline_eval_1_0" nVehContrib="17" flow="1020.00" occupancy="9.64" speed="15.16" length="5.00" nVehEntered="17"/>
    <interval begin="420.00" end="480.00" id="mainline_eval_1_1" nVehContrib="29" flow="1740.00" occupancy="16.29" speed="15.36" length="5.00" nVehEntered="29"/>
    <interval begin="420.00" end="480.00" id="mainline_eval_1_2" nVehContrib="33" flow="1980.00" occupancy="18.60" speed="15.33" length="5.00" nVehEntered="33"/>
    <interval begin="420.00" end="480.00" id="mainline_eval_2_0" nVehContrib="21" flow="1260.00" occupancy="12.09" speed="14.94" length="5.00" nVehEntered="21"/>
    <interval begin="420.00" end="480.00" id="mainline_eval_2_1" nVehContrib="23" flow="1380.00" occupancy="11.97" speed="16.45" length="5.00" nVehEntered="23"/>
    <interval begin="420.00" end="480.00" id="mainline_eval_2_2" nVehContrib="30" flow="1800.00" occupancy="15.98" speed="16.34" length="5.00" nVehEntered="30"/>
    <interval begin="420.00" end="480.00" id="mainline_eval_3_0" nVehContrib="4" flow="240.00" occupancy="3.72" speed="9.16" length="5.00" nVehEntered="6"/>
    <interval begin="420.00" end="480.00" id="mainline_eval_3_1" nVehContrib="30" flow="1800.00" occupancy="23.80" speed="11.91" length="5.00" nVehEntered="30"/>
    <interval begin="420.00" end="480.00" id="mainline_eval_3_2" nVehContrib="31" flow="1860.00" occupancy="16.78" speed="16.02" length="5.00" nVehEntered="31"/>
    <interval begin="420.00" end="480.00" id="mainline_eval_3_3" nVehContrib="27" flow="1620.00" occupancy="12.74" speed="17.39" length="5.00" nVehEntered="26"/>
    <interval begin="420.00" end="480.00" id="mainline_eval_4_0" nVehContrib="0" flow="0.00" occupancy="0.00" speed="-1.00" length="-1.00" nVehEntered="1"/>
    <interval begin="420.00" end="480.00" id="mainline_eval_4_1" nVehContrib="31" flow="1860.00" occupancy="19.34" speed="14.50" length="5.00" nVehEntered="31"/>
    <interval begin="420.00" end="480.00" id="mainline_eval_4_2" nVehContrib="32" flow="1920.00" occupancy="15.43" speed="17.71" length="5.00" nVehEntered="32"/>
    <interval begin="420.00" end="480.00" id="mainline_eval_4_3" nVehContrib="28" flow="1680.00" occupancy="12.32" speed="19.11" length="5.00" nVehEntered="28"/>
    <interval begin="420.00" end="480.00" id="mainline_eval_5_0" nVehContrib="31" flow="1860.00" occupancy="14.06" speed="18.54" length="5.00" nVehEntered="31"/>
    <interval begin="420.00" end="480.00" id="mainline_eval_5_1" nVehContrib="33" flow="1980.00" occupancy="13.63" speed="19.60" length="5.00" nVehEntered="32"/>
    <interval begin="420.00" end="480.00" id="mainline_eval_5_2" nVehContrib="30" flow="1800.00" occupancy="11.86" speed="21.12" length="5.00" nVehEntered="30"/>