<?xml version="1.0" encoding="UTF-8"?>

<!-- generated on 02/25/19 23:39:32 by Eclipse SUMO Version 1.0.1
<configuration xmlns:xsi="http://www.w3.org/2001/XMLSchema-instance" xsi:noNamespaceSchemaLocation="http://sumo.dlr.de/xsd/sumoConfiguration.xsd">

    <input>
        <net-file value="./project/ramp.net.xml"/>
        <route-files value="./project/ramp.rou.xml"/>
        <additional-files value="./project/ramp.add.xml"/>
    </input>

    <time>
        <begin value="0"/>
    </time>

    <report>
        <verbose value="true"/>
        <no-step-log value="true"/>
    </report>

    <traci_server>
        <remote-port value="62335"/>
    </traci_server>

    <random_number>
        <seed value="134183585"/>
    </random_number>

    <gui_only>
        <quit-on-end value="true"/>
        <start value="true"/>
    </gui_only>

</configuration>
-->

<detector xmlns:xsi="http://www.w3.org/2001/XMLSchema-instance" xsi:noNamespaceSchemaLocation="http://sumo.dlr.de/xsd/det_e1_file.xsd">
    <interval begin="0.00" end="60.00" id="mainline_eval_0_0" nVehContrib="1" flow="60.00" occupancy="0.35" speed="23.58" length="5.00" nVehEntered="1"/>
    <interval begin="0.00" end="60.00" id="mainline_eval_0_1" nVehContrib="0" flow="0.00" occupancy="0.00" speed="-1.00" length="-1.00" nVehEntered="0"/>
    <interval begin="0.00" end="60.00" id="mainline_eval_0_2" nVehContrib="0" flow="0.00" occupancy="0.00" speed="-1.00" length="-1.00" nVehEntered="0"/>
    <interval begin="0.00" end="60.00" id="mainline_eval_1_0" nVehContrib="0" flow="0.00" occupancy="0.00" speed="-1.00" length="-1.00" nVehEntered="0"/>
    <interval begin="0.00" end="60.00" id="mainline_eval_1_1" nVehContrib="0" flow="0.00" occupancy="0.00" speed="-1.00" length="-1.00" nVehEntered="0"/>
    <interval begin="0.00" end="60.00" id="mainline_eval_1_2" nVehContrib="0" flow="0.00" occupancy="0.00" speed="-1.00" length="-1.00" nVehEntered="0"/>
    <interval begin="0.00" end="60.00" id="mainline_eval_2_0" nVehContrib="0" flow="0.00" occupancy="0.00" speed="-1.00" length="-1.00" nVehEntered="0"/>
    <interval begin="0.00" end="60.00" id="mainline_eval_2_1" nVehContrib="0" flow="0.00" occupancy="0.00" speed="-1.00" length="-1.00" nVehEntered="0"/>
    <interval begin="0.00" end="60.00" id="mainline_eval_2_2" nVehContrib="0" flow="0.00" occupancy="0.00" speed="-1.00" length="-1.00" nVehEntered="0"/>
    <interval begin="0.00" end="60.00" id="mainline_eval_3_0" nVehContrib="0" flow="0.00" occupancy="0.00" speed="-1.00" length="-1.00" nVehEntered="0"/>
    <interval begin="0.00" end="60.00" id="mainline_eval_3_1" nVehContrib="0" flow="0.00" occupancy="0.00" speed="-1.00" length="-1.00" nVehEntered="0"/>
    <interval begin="0.00" end="60.00" id="mainline_eval_3_2" nVehContrib="0" flow="0.00" occupancy="0.00" speed="-1.00" length="-1.00" nVehEntered="0"/>
    <interval begin="0.00" end="60.00" id="mainline_eval_3_3" nVehContrib="0" flow="0.00" occupancy="0.00" speed="-1.00" length="-1.00" nVehEntered="0"/>
    <interval begin="0.00" end="60.00" id="mainline_eval_4_0" nVehContrib="0" flow="0.00" occupancy="0.00" speed="-1.00" length="-1.00" nVehEntered="0"/>
    <interval begin="0.00" end="60.00" id="mainline_eval_4_1" nVehContrib="0" flow="0.00" occupancy="0.00" speed="-1.00" length="-1.00" nVehEntered="0"/>
    <interval begin="0.00" end="60.00" id="mainline_eval_4_2" nVehContrib="0" flow="0.00" occupancy="0.00" speed="-1.00" length="-1.00" nVehEntered="0"/>
    <interval begin="0.00" end="60.00" id="mainline_eval_4_3" nVehContrib="0" flow="0.00" occupancy="0.00" speed="-1.00" length="-1.00" nVehEntered="0"/>
    <interval begin="0.00" end="60.00" id="mainline_eval_5_0" nVehContrib="0" flow="0.00" occupancy="0.00" speed="-1.00" length="-1.00" nVehEntered="0"/>
    <interval begin="0.00" end="60.00" id="mainline_eval_5_1" nVehContrib="0" flow="0.00" occupancy="0.00" speed="-1.00" length="-1.00" nVehEntered="0"/>
    <interval begin="0.00" end="60.00" id="mainline_eval_5_2" nVehContrib="0" flow="0.00" occupancy="0.00" speed="-1.00" length="-1.00" nVehEntered="0"/>
    <interval begin="0.00" end="60.00" id="mainline_eval_6_0" nVehContrib="0" flow="0.00" occupancy="0.00" speed="-1.00" length="-1.00" nVehEntered="0"/>
    <interval begin="0.00" end="60.00" id="mainline_eval_6_1" nVehContrib="0" flow="0.00" occupancy="0.00" speed="-1.00" length="-1.00" nVehEntered="0"/>
    <interval begin="0.00" end="60.00" id="mainline_eval_6_2" nVehContrib="0" flow="0.00" occupancy="0.00" speed="-1.00" length="-1.00" nVehEntered="0"/>
    <interval begin="60.00" end="120.00" id="mainline_eval_0_0" nVehContrib="13" flow="780.00" occupancy="5.42" speed="20.21" length="5.00" nVehEntered="13"/>
    <interval begin="60.00" end="120.00" id="mainline_eval_0_1" nVehContrib="21" flow="1260.00" occupancy="8.12" speed="21.68" length="5.00" nVehEntered="21"/>
    <interval begin="60.00" end="120.00" id="mainline_eval_0_2" nVehContrib="18" flow="1080.00" occupancy="6.48" speed="23.18" length="5.00" nVehEntered="18"/>
    <interval begin="60.00" end="120.00" id="mainline_eval_1_0" nVehContrib="12" flow="720.00" occupancy="4.72" speed="21.30" length="5.00" nVehEntered="12"/>
    <interval begin="60.00" end="120.00" id="mainline_eval_1_1" nVehContrib="11" flow="660.00" occupancy="4.20" speed="22.01" length="5.00" nVehEntered="11"/>
    <interval begin="60.00" end="120.00" id="mainline_eval_1_2" nVehContrib="10" flow="600.00" occupancy="3.45" speed="24.15" length="5.00" nVehEntered="10"/>
    <interval begin="60.00" end="120.00" id="mainline_eval_2_0" nVehContrib="7" flow="420.00" occupancy="2.64" speed="22.15" length="5.00" nVehEntered="7"/>
    <interval begin="60.00" end="120.00" id="mainline_eval_2_1" nVehContrib="6" flow="360.00" occupancy="2.13" speed="23.51" length="5.00" nVehEntered="6"/>
    <interval begin="60.00" end="120.00" id="mainline_eval_2_2" nVehContrib="5" flow="300.00" occupancy="1.68" speed="24.82" length="5.00" nVehEntered="5"/>
    <interval begin="60.00" end="120.00" id="mainline_eval_3_0" nVehContrib="0" flow="0.00" occupancy="0.00" speed="-1.00" length="-1.00" nVehEntered="0"/>
    <interval begin="60.00" end="120.00" id="mainline_eval_3_1" nVehContrib="5" flow="300.00" occupancy="1.85" speed="22.60" length="5.00" nVehEntered="5"/>
    <interval begin="60.00" end="120.00" id="mainline_eval_3_2" nVehContrib="3" flow="180.00" occupancy="1.06" speed="23.61" length="5.00" nVehEntered="3"/>
    <interval begin="60.00" end="120.00" id="mainline_eval_3_3" nVehContrib="3" flow="180.00" occupancy="1.02" speed="24.60" length="5.00" nVehEntered="3"/>
    <interval begin="60.00" end="120.00" id="mainline_eval_4_0" nVehContrib="0" flow="0.00" occupancy="0.00" speed="-1.00" length="-1.00" nVehEntered="0"/>
    <interval begin="60.00" end="120.00" id="mainline_eval_4_1" nVehContrib="5" flow="300.00" occupancy="1.84" speed="22.66" length="5.00" nVehEntered="5"/>
    <interval begin="60.00" end="120.00" id="mainline_eval_4_2" nVehContrib="2" flow="120.00" occupancy="1.03" speed="23.92" length="5.00" nVehEntered="3"/>
    <interval begin="60.00" end="120.00" id="mainline_eval_4_3" nVehContrib="2" flow="120.00" occupancy="0.68" speed="24.68" length="5.00" nVehEntered="2"/>
    <interval begin="60.00" end="120.00" id="mainline_eval_5_0" nVehContrib="2" flow="120.00" occupancy="0.71" speed="23.32" length="5.00" nVehEntered="2"/>
    <interval begin="60.00" end="120.00" id="mainline_eval_5_1" nVehContrib="1" flow="60.00" occupancy="0.36" speed="23.07" length="5.00" nVehEntered="1"/>
    <interval begin="60.00" end="120.00" id="mainline_eval_5_2" nVehContrib="2" flow="120.00" occupancy="0.68" speed="24.68" length="5.00" nVehEntered="2"/>
    <interval begin="60.00" end="120.00" id="mainline_eval_6_0" nVehContrib="1" flow="60.00" occupancy="0.35" speed="23.66" length="5.00" nVehEntered="1"/>
    <interval begin="60.00" end="120.00" id="mainline_eval_6_1" nVehContrib="0" flow="0.00" occupancy="0.00" speed="-1.00" length="-1.00" nVehEntered="0"/>
    <interval begin="60.00" end="120.00" id="mainline_eval_6_2" nVehContrib="0" flow="0.00" occupancy="0.00" speed="-1.00" length="-1.00" nVehEntered="0"/>
    <interval begin="120.00" end="180.00" id="mainline_eval_0_0" nVehContrib="19" flow="1140.00" occupancy="8.78" speed="18.09" length="5.00" nVehEntered="19"/>
    <interval begin="120.00" end="180.00" id="mainline_eval_0_1" nVehContrib="25" flow="1500.00" occupancy="10.90" speed="19.26" length="5.00" nVehEntered="26"/>
    <interval begin="120.00" end="180.00" id="mainline_eval_0_2" nVehContrib="30" flow="1800.00" occupancy="12.06" speed="20.85" length="5.00" nVehEntered="30"/>
    <interval begin="120.00" end="180.00" id="mainline_eval_1_0" nVehContrib="14" flow="840.00" occupancy="6.36" speed="18.38" length="5.00" nVehEntered="14"/>
    <interval begin="120.00" end="180.00" id="mainline_eval_1_1" nVehContrib="22" flow="1320.00" occupancy="9.19" speed="20.02" length="5.00" nVehEntered="22"/>
    <interval begin="120.00" end="180.00" id="mainline_eval_1_2" nVehContrib="29" flow="1740.00" occupancy="11.82" speed="20.58" length="5.00" nVehEntered="29"/>
    <interval begin="120.00" end="180.00" id="mainline_eval_2_0" nVehContrib="16" flow="960.00" occupancy="7.01" speed="19.13" length="5.00" nVehEntered="16"/>
    <interval begin="120.00" end="180.00" id="mainline_eval_2_1" nVehContrib="18" flow="1080.00" occupancy="7.29" speed="20.72" length="5.00" nVehEntered="18"/>
    <interval begin="120.00" end="180.00" id="mainline_eval_2_2" nVehContrib="19" flow="1140.00" occupancy="7.31" speed="21.89" length="5.00" nVehEntered="19"/>
    <interval begin="120.00" end="180.00" id="mainline_eval_3_0" nVehContrib="1" flow="60.00" occupancy="0.60" speed="14.00" length="5.00" nVehEntered="1"/>
    <interval begin="120.00" end="180.00" id="mainline_eval_3_1" nVehContrib="15" flow="900.00" occupancy="7.24" speed="18.17" length="5.00" nVehEntered="15"/>
    <interval begin="120.00" end="180.00" id="mainline_eval_3_2" nVehContrib="17" flow="1020.00" occupancy="6.65" speed="21.44" length="5.00" nVehEntered="17"/>
    <interval begin="120.00" end="180.00" id="mainline_eval_3_3" nVehContrib="16" flow="960.00" occupancy="5.77" speed="23.22" length="5.00" nVehEntered="16"/>
    <interval begin="120.00" end="180.00" id="mainline_eval_4_0" nVehContrib="0" flow="0.00" occupancy="0.00" speed="-1.00" length="-1.00" nVehEntered="0"/>
    <interval begin="120.00" end="180.00" id="mainline_eval_4_1" nVehContrib="17" flow="1020.00" occupancy="7.53" speed="19.13" length="5.00" nVehEntered="17"/>
    <interval begin="120.00" end="180.00" id="mainline_eval_4_2" nVehContrib="18" flow="1080.00" occupancy="6.63" speed="21.71" length="5.00" nVehEntered="17"/>
    <interval begin="120.00" end="180.00" id="mainline_eval_4_3" nVehContrib="16" flow="960.00" occupancy="5.71" speed="23.45" length="5.00" nVehEntered="16"/>
    <interval begin="120.00" end="180.00" id="mainline_eval_5_0" nVehContrib="16" flow="960.00" occupancy="6.54" speed="20.53" length="5.00" nVehEntered="16"/>
    <interval begin="120.00" end="180.00" id="mainline_eval_5_1" nVehContrib="18" flow="1080.00" occupancy="6.92" speed="21.81" length="5.00" nVehEntered="18"/>
    <interval begin="120.00" end="180.00" id="mainline_eval_5_2" nVehContrib="15" flow="900.00" occupancy="5.36" speed="23.40" length="5.00" nVehEntered="15"/>
    <interval begin="120.00" end="180.00" id="mainline_eval_6_0" nVehContrib="15" flow="900.00" occupancy="6.01" speed="20.95" length="5.00" nVehEntered="15"/>
    <interval begin="120.00" end="180.00" id="mainline_eval_6_1" nVehContrib="18" flow="1080.00" occupancy="6.77" speed="22.23" length="5.00" nVehEntered="18"/>
    <interval begin="120.00" end="180.00" id="mainline_eval_6_2" nVehContrib="17" flow="1020.00" occupancy="6.08" speed="23.38" length="5.00" nVehEntered="17"/>
    <interval begin="180.00" end="240.00" id="mainline_eval_0_0" nVehContrib="17" flow="1020.00" occupancy="8.11" speed="17.56" length="5.00" nVehEntered="17"/>
    <interval begin="180.00" end="240.00" id="mainline_eval_0_1" nVehContrib="27" flow="1620.00" occupancy="11.92" speed="18.95" length="5.00" nVehEntered="26"/>
    <interval begin="180.00" end="240.00" id="mainline_eval_0_2" nVehContrib="33" flow="1980.00" occupancy="12.82" speed="21.47" length="5.00" nVehEntered="33"/>
    <interval begin="180.00" end="240.00" id="mainline_eval_1_0" nVehContrib="15" flow="900.00" occupancy="7.11" speed="18.21" length="5.00" nVehEntered="16"/>
    <interval begin="180.00" end="240.00" id="mainline_eval_1_1" nVehContrib="27" flow="1620.00" occupancy="12.36" speed="18.33" length="5.00" nVehEntered="27"/>
    <interval begin="180.00" end="240.00" id="mainline_eval_1_2" nVehContrib="32" flow="1920.00" occupancy="13.47" speed="19.93" length="5.00" nVehEntered="32"/>
    <interval begin="180.00" end="240.00" id="mainline_eval_2_0" nVehContrib="18" flow="1080.00" occupancy="8.29" speed="18.21" length="5.00" nVehEntered="18"/>
    <interval begin="180.00" end="240.00" id="mainline_eval_2_1" nVehContrib="26" flow="1560.00" occupancy="11.24" speed="19.31" length="5.00" nVehEntered="26"/>
    <interval begin="180.00" end="240.00" id="mainline_eval_2_2" nVehContrib="37" flow="2220.00" occupancy="15.77" speed="19.65" length="5.00" nVehEntered="38"/>
    <interval begin="180.00" end="240.00" id="mainline_eval_3_0" nVehContrib="13" flow="780.00" occupancy="11.13" speed="11.71" length="5.00" nVehEntered="13"/>
    <interval begin="180.00" end="240.00" id="mainline_eval_3_1" nVehContrib="22" flow="1320.00" occupancy="23.63" speed="11.00" length="5.00" nVehEntered="23"/>
    <interval begin="180.00" end="240.00" id="mainline_eval_3_2" nVehContrib="30" flow="1800.00" occupancy="23.45" speed="14.56" length="5.00" nVehEntered="30"/>
    <interval begin="180.00" end="240.00" id="mainline_eval_3_3" nVehContrib="38" flow="2280.00" occupancy="15.22" speed="20.91" length="5.00" nVehEntered="39"/>
    <interval begin="180.00" end="240.00" id="mainline_eval_4_0" nVehContrib="7" flow="420.00" occupancy="5.09" speed="12.50" length="5.00" nVehEntered="7"/>
    <interval begin="180.00" end="240.00" id="mainline_eval_4_1" nVehContrib="21" flow="1260.00" occupancy="30.51" speed="8.24" length="5.00" nVehEntered="21"/>
    <interval begin="180.00" end="240.00" id="mainline_eval_4_2" nVehContrib="30" flow="1800.00" occupancy="17.59" speed="15.53" length="5.00" nVehEntered="30"/>
    <interval begin="180.00" end="240.00" id="mainline_eval_4_3" nVehContrib="36" flow="2160.00" occupancy="14.56" speed="20.76" length="5.00" nVehEntered="36"/>
    <interval begin="180.00" end="240.00" id="mainline_eval_5_0" nVehContrib="19" flow="1140.00" occupancy="8.64" speed="18.40" length="5.00" nVehEntered="19"/>
    <interval begin="180.00" end="240.00" id="mainline_eval_5_1" nVehContrib="27" flow="1620.00" occupancy="12.08" speed="18.78" length="5.00" nVehEntered="28"/>
    <interval begin="180.00" end="240.00" id="mainline_eval_5_2" nVehContrib="31" flow="1860.00" occupancy="12.13" speed="21.33" length="5.00" nVehEntered="31"/>
    <interval begin="180.00" end="240.00" id="mainline_eval_6_0" nVehContrib="20" flow="1200.00" occupancy="9.08" speed="18.46" length="5.00" nVehEntered="20"/>
    <interval begin="180.00" end="240.00" id="mainline_eval_6_1" nVehContrib="26" flow="1560.00" occupancy="11.45" speed="18.96" length="5.00" nVehEntered="26"/>
    <interval begin="180.00" end="240.00" id="mainline_eval_6_2" nVehContrib="28" flow="1680.00" occupancy="10.73" speed="21.77" length="5.00" nVehEntered="28"/>
    <interval begin="240.00" end="300.00" id="mainline_eval_0_0" nVehContrib="17" flow="1020.00" occupancy="7.61" speed="18.71" length="5.00" nVehEntered="17"/>
    <interval begin="240.00" end="300.00" id="mainline_eval_0_1" nVehContrib="28" flow="1680.00" occupancy="11.70" speed="19.98" length="5.00" nVehEntered="28"/>
    <interval begin="240.00" end="300.00" id="mainline_eval_0_2" nVehContrib="35" flow="2100.00" occupancy="14.08" speed="20.80" length="5.00" nVehEntered="36"/>
    <interval begin="240.00" end="300.00" id="mainline_eval_1_0" nVehContrib="16" flow="960.00" occupancy="7.59" speed="17.36" length="5.00" nVehEntered="15"/>
    <interval begin="240.00" end="300.00" id="mainline_eval_1_1" nVehContrib="31" flow="1860.00" occupancy="13.79" speed="18.92" length="5.00" nVehEntered="31"/>
    <interval begin="240.00" end="300.00" id="mainline_eval_1_2" nVehContrib="36" flow="2160.00" occupancy="14.13" speed="21.28" length="5.00" nVehEntered="36"/>
    <interval begin="240.00" end="300.00" id="mainline_eval_2_0" nVehContrib="15" flow="900.00" occupancy="6.98" speed="18.04" length="5.00" nVehEntered="15"/>
    <interval begin="240.00" end="300.00" id="mainline_eval_2_1" nVehContrib="25" flow="1500.00" occupancy="10.66" speed="19.65" length="5.00" nVehEntered="25"/>
    <interval begin="240.00" end="300.00" id="mainline_eval_2_2" nVehContrib="33" flow="1980.00" occupancy="12.82" speed="21.39" length="5.00" nVehEntered="32"/>
    <interval begin="240.00" end="300.00" id="mainline_eval_3_0" nVehContrib="6" flow="360.00" occupancy="7.10" speed="8.84" length="5.00" nVehEntered="6"/>
    <interval begin="240.00" end="300.00" id="mainline_eval_3_1" nVehontrib="26" flow="1560.00" occupancy="20.57" speed="12.06" length="5.00" nVehEntered="26"/>
    <interval begin="240.00" end="300.00" id="mainline_eval_3_2" nVehContrib="27" flow="1620.00" occupancy="14.84" speed="16.95" length="5.00" nVehEntered="28"/>
    <interval begin="240.00" end="300.00" id="mainline_eval_3_3" nVehContrib="33" flow="1980.00" occupancy="13.94" speed="20.10" length="5.00" nVehEntered="33"/>
    <interval begin="240.00" end="300.00" id="mainline_eval_4_0" nVehContrib="1" flow="60.00" occupancy="0.87" speed="9.58" length="5.00" nVehEntered="1"/>
    <interval begin="240.00" end="300.00" id="mainline_eval_4_1" nVehContrib="30" flow="1800.00" occupancy="16.48" speed="14.85" length="5.00" nVehEntered="29"/>
    <interval begin="240.00" end="300.00" id="mainline_eval_4_2" nVehContrib="29" flow="1740.00" occupancy="13.65" speed="17.79" length="5.00" nVehEntered="28"/>
    <interval begin="240.00" end="300.00" id="mainline_eval_4_3" nVehContrib="33" flow="1980.00" occupancy="13.79" speed="20.05" length="5.00" nVehEntered="33"/>
    <interval begin="240.00" end="300.00" id="mainline_eval_5_0" nVehContrib="29" flow="1740.00" occupancy="13.40" speed="17.66" length="5.00" nVehEntered="28"/>
    <interval begin="240.00" end="300.00" id="mainline_eval_5_1" nVehContrib="33" flow="1980.00" occupancy="14.29" speed="19.16" length="5.00" nVehEntered="32"/>
    <interval begin="240.00" end="300.00" id="mainline_eval_5_2" nVehContrib="32" flow="1920.00" occupancy="12.90" speed="20.86" length="5.00" nVehEntered="32"/>
    <interval begin="240.00" end="300.00" id="mainline_eval_6_0" nVehContrib="28" flow="1680.00" occupancy="13.77" speed="17.15" length="5.00" nVehEntered="28"/>
    <interval begin="240.00" end="300.00" id="mainline_eval_6_1" nVehContrib="32" flow="1920.00" occupancy="13.95" speed="19.20" length="5.00" nVehEntered="32"/>
    <interval begin="240.00" end="300.00" id="mainline_eval_6_2" nVehContrib="34" flow="2040.00" occupancy="13.54" speed="21.02" length="5.00" nVehEntered="34"/>
   <interval begin="300.00" end="360.00" id="mainline_eval_0_0" nVehContrib="17" flow="1020.00" occupancy="7.93" speed="17.91" length="5.00" nVehEntered="18"/>
    <interval begin="300.00" end="360.00" id="mainline_eval_0_1" nVehContrib="25" flow="1500.00" occupancy="11.87" speed="19.32" length="5.00" nVehEntered="25"/>
    <interval begin="300.00" end="360.00" id="mainline_eval_0_2" nVehContrib="35" flow="2100.00" occupancy="13.58" speed="21.46" length="5.00" nVehEntered="34"/>
    <interval begin="300.00" end="360.00" id="mainline_eval_1_0" nVehContrib="16" flow="960.00" occupancy="8.74" speed="15.91" length="5.00" nVehEntered="16"/>
    <interval begin="300.00" end="360.00" id="mainline_eval_1_1" nVehContrib="24" flow="1440.00" occupancy="12.77" speed="16.71" length="5.00" nVehEntered="24"/>
    <interval begin="300.00" end="360.00" id="mainline_eval_1_2" nVehContrib="32" flow="1920.00" occupancy="16.16" speed="17.39" length="5.00" nVehEntered="32"/>
    <interval begin="300.00" end="360.00" id="mainline_eval_2_0" nVehContrib="21" flow="1260.00" occupancy="10.99" speed="16.57" length="5.00" nVehEntered="21"/>
    <interval begin="300.00" end="360.00" id="mainline_eval_2_1" nVehContrib="27" flow="1620.00" occupancy="13.27" speed="17.75" length="5.00" nVehEntered="27"/>
    <interval begin="300.00" end="360.00" id="mainline_eval_2_2" nVehContrib="23" flow="1380.00" occupancy="11.02" speed="18.73" length="5.00" nVehEntered="24"/>
    <interval begin="300.00" end="360.00" id="mainline_eval_3_0" nVehContrib="9" flow="540.00" occupancy="11.00" speed="7.51" length="5.00" nVehEntered="9"/>
    <interval begin="300.00" end="360.00" id="mainline_eval_3_1" nVehContrib="22" flow="1320.00" occupancy="27.68" speed="7.58" length="5.00" nVehEntered="22"/>
    <interval begin="300.00" end="360.00" id="mainline_eval_3_2" nVehContrib="26" flow="1560.00" occupancy="16.80" speed="14.51" length="5.00" nVehEntered="27"/>
    <interval begin="300.00" end="360.00" id="mainline_eval_3_3" nVehContrib="33" flow="1980.00" occupancy="18.32" speed="16.80" length="5.00" nVehEntered="32"/>
    <interval begin="300.00" end="360.00" id="mainline_eval_4_0" nVehContrib="1" flow="60.00" occupancy="1.00" speed="8.35" length="5.00" nVehEntered="1"/>
    <interval begin="300.00" end="360.00" id="mainline_eval_4_1" nVehContrib="28" flow="1680.00" occupancy="19.55" speed="12.23" length="5.00" nVehEntered="28"/>
    <interval begin="300.00" end="360.00" id="mainline_eval_4_2" nVehContrib="27" flow="1620.00" occupancy="14.21" speed="16.28" length="5.00" nVehEntered="28"/>
    <interval begin="300.00" end="360.00" id="mainline_eval_4_3" nVehContrib="31" flow="1860.00" occupancy="14.07" speed="18.62" length="5.00" nVehEntered="31"/>
    <interval begin="300.00" end="360.00" id="mainline_eval_5_0" nVehContrib="27" flow="1620.00" occupancy="12.06" speed="18.83" length="5.00" nVehEntered="27"/>
    <interval begin="300.00" end="360.00" id="mainline_eval_5_1" nVehContrib="29" flow="1740.00" occupancy="12.79" speed="19.09" length="5.00" nVehEntered="29"/>
    <interval begin="300.00" end="360.00" id="mainline_eval_5_2" nVehContrib="32" flow="1920.00" occupancy="12.75" speed="20.95" length="5.00" nVehEntered="32"/>
    <interval begin="300.00" end="360.00" id="mainline_eval_6_0" nVehContrib="28" flow="1680.00" occupancy="12.86" speed="18.31" length="5.00" nVehEntered="28"/>
    <interval begin="300.00" end="360.00" id="mainline_eval_6_1" nVehContrib="30" flow="1800.00" occupancy="13.01" speed="19.30" length="5.00" nVehEntered="30"/>
    <interval begin="300.00" end="360.00" id="mainline_eval_6_2" nVehContrib="34" flow="2040.00" occupancy="13.55" speed="20.95" length="5.00" nVehEntered="34"/>
    <interval begin="360.00" end="420.00" id="mainline_eval_0_0" nVehContrib="19" flow="1140.00" occupancy="8.83" speed="17.94" length="5.00" nVehEntered="19"/>
    <interval begin="360.00" end="420.00" id="mainline_eval_0_1" nVehContrib="30" flow="1800.00" occupancy="13.34" speed="18.78" length="5.00" nVehEntered="30"/>
    <interval begin="360.00" end="420.00" id="mainline_eval_0_2" nVehContrib="31" flow="1860.00" occupancy="12.91" speed="20.10" length="5.00" nVehEntered="31"/>
    <interval begin="360.00" end="420.00" id="mainline_eval_1_0" nVehContrib="16" flow="960.00" occupancy="7.56" speed="17.66" length="5.00" nVehEntered="16"/>
    <interval begin="360.00" end="420.00" id="mainline_eval_1_1" nVehContrib="29" flow="1740.00" occupancy="13.39" speed="18.49" length="5.00" nVehEntered="30"/>
    <interval begin="360.00" end="420.00" id="mainline_eval_1_2" nVehContrib="35" flow="2100.00" occupancy="14.58" speed="20.12" length="5.00" nVehEntered="35"/>
    <interval begin="360.00" end="420.00" id="mainline_eval_2_0" nVehContrib="18" flow="1080.00" occupancy="8.53" speed="17.63" length="5.00" nVehEntered="18"/>
    <interval begin="360.00" end="420.00" id="mainline_eval_2_1" nVehContrib="29" flow="1740.00" occupancy="12.43" speed="19.51" length="5.00" nVehEntered="29"/>
    <interval begin="360.00" end="420.00" id="mainline_eval_2_2" nVehContrib="38" flow="2280.00" occupancy="15.18" speed="20.56" length="5.00" nVehEntered="38"/>
    <interval begin="360.00" end="420.00" id="mainline_eval_3_0" nVehContrib="2" flow="120.00" occupancy="1.39" speed="12.11" length="5.00" nVehEntered="3"/>
    <interval begin="360.00" end="420.00" id="mainline_eval_3_1" nVehContrib="23" flow="1380.00" occupancy="20.68" speed="12.85" length="5.00" nVehEntered="24"/>
    <interval begin="360.00" end="420.00" id="mainline_eval_3_2" nVehContrib="34" flow="2040.00" occupancy="15.35" speed="18.70" length="5.00" nVehEntered="35"/>
    <interval begin="360.00" end="420.00" id="mainline_eval_3_3" nVehContrib="38" flow="2280.00" occupancy="15.21" speed="20.87" length="5.00" nVehEntered="38"/>
    <interval begin="360.00" end="420.00" id="mainline_eval_4_0" nVehContrib="1" flow="60.00" occupancy="0.83" speed="10.02" length="5.00" nVehEntered="1"/>
    <interval begin="360.00" end="420.00" id="mainline_eval_4_1" nVehContrib="24" flow="1440.00" occupancy="14.79" speed="14.49" length="5.00" nVehEntered="24"/>
    <interval begin="360.00" end="420.00" id="mainline_eval_4_2" nVehContrib="35" flow="2100.00" occupancy="15.31" speed="18.99" length="5.00" nVehEntered="34"/>
    <interval begin="360.00" end="420.00" id="mainline_eval_4_3" nVehContrib="38" flow="2280.00" occupancy="15.09" speed="21.02" length="5.00" nVehEntered="38"/>
    <interval begin="360.00" end="420.00" id="mainline_eval_5_0" nVehContrib="25" flow="1500.00" occupancy="12.06" speed="17.40" length="5.00" nVehEntered="25"/>
    <interval begin="360.00" end="420.00" id="mainline_eval_5_1" nVehContrib="35" flow="2100.00" occupancy="15.72" speed="18.61" length="5.00" nVehEntered="35"/>
    <interval begin="360.00" end="420.00" id="mainline_eval_5_2" nVehContrib="37" flow="2220.00" occupancy="14.36" speed="21.49" length="5.00" nVehEntered="37"/>
    <interval begin="360.00" end="420.00" id="mainline_eval_6_0" nVehContrib="23" flow="1380.00" occupancy="10.68" speed="18.06" length="5.00" nVehEntered="23"/>
    <interval begin="360.00" end="420.00" id="mainline_eval_6_1" nVehContrib="33" flow="1980.00" occupancy="14.60" speed="18.89" length="5.00" nVehEntered="33"/>
    <interval begin="360.00" end="420.00" id="mainline_eval_6_2" nVehContrib="36" flow="2160.00" occupancy="14.01" speed="21.44" length="5.00" nVehEntered="36"/>
    <interval begin="420.00" end="480.00" id="mainline_eval_0_0" nVehContrib="18" flow="1080.00" occupancy="8.20" speed="18.35" length="5.00" nVehEntered="18"/>
    <interval begin="420.00" end="480.00" id="mainline_eval_0_1" nVehContrib="28" flow="1680.00" occupancy="11.64" speed="20.07" length="5.00" nVehEntered="28"/>
    <interval begin="420.00" end="480.00" id="mainline_eval_0_2" nVehContrib="32" flow="1920.00" occupancy="12.77" speed="21.15" length="5.00" nVehEntered="33"/>
    <interval begin="420.00" end="480.00" id="mainline_eval_1_0" nVehContrib="21" flow="1260.00" occupancy="11.28" speed="16.02" length="5.00" nVehEntered="21"/>
    <interval begin="420.00" end="480.00" id="mainline_eval_1_1" nVehContrib="27" flow="1620.00" occupancy="14.22" speed="16.39" length="5.00" nVehEntered="27"/>
    <interval begin="420.00" end="480.00" id="mainline_eval_1_2" nVehContrib="31" flow="1860.00" occupancy="15.76" speed="17.24" length="5.00" nVehEntered="31"/>
    <interval begin="420.00" end="480.00" id="mainline_eval_2_0" nVehContrib="22" flow="1320.00" occupancy="12.68" speed="15.20" length="5.00" nVehEntered="23"/>
    <interval begin="420.00" end="480.00" id="mainline_eval_2_1" nVehContrib="24" flow="1440.00" occupancy="13.44" speed="15.78" length="5.00" nVehEntered="24"/>
    <interval begin="420.00" end="480.00" id="mainline_eval_2_2" nVehContrib="24" flow="1440.00" occupancy="11.82" speed="18.01" length="5.00" nVehEntered="23"/>
    <interval begin="420.00" end="480.00" id="mainline_eval_3_0" nVehContrib="10" flow="600.00" occupancy="7.66" speed="11.07" length="5.00" nVehEntered="11"/>
    <interval begin="420.00" end="480.00" id="mainline_eval_3_1" nVehContrib="25" flow="1500.00" occupancy="30.12" speed="7.22" length="5.00" nVehEntered="24"/>
    <interval begin="420.00" end="480.00" id="mainline_eval_3_2" nVehContrib="30" flow="1800.00" occupancy="19.68" speed="13.42" length="5.00" nVehEntered="29"/>
    <interval begin="420.00" end="480.00" id="mainline_eval_3_3" nVehContrib="28" flow="1680.00" occupancy="13.26" speed="18.40" length="5.00" nVehEntered="28"/>
    <interval begin="420.00" end="480.00" id="mainline_eval_4_0" nVehContrib="3" flow="180.00" occupancy="2.01" speed="12.66" length="5.00" nVehEntered="4"/>
    <interval begin="420.00" end="480.00" id="mainline_eval_4_1" nVehContrib="29" flow="1740.00" occupancy="22.58" speed="11.63" length="5.00" nVehEntered="29"/>
    <interval begin="420.00" end="480.00" id="mainline_eval_4_2" nVehContrib="31" flow="1860.00" occupancy="17.78" speed="15.36" length="5.00" nVehEntered="31"/>
    <interval begin="420.00" end="480.00" id="mainline_eval_4_3" nVehContrib="29" flow="1740.00" occupancy="12.67" speed="19.40" length="5.00" nVehEntered="29"/>
    <interval begin="420.00" end="480.00" id="mainline_eval_5_0" nVehContrib="29" flow="1740.00" occupancy="14.00" speed="17.62" length="5.00" nVehEntered="30"/>
    <interval begin="420.00" end="480.00" id="mainline_eval_5_1" nVehContrib="32" flow="1920.00" occupancy="15.23" speed="17.64" length="5.00" nVehEntered="32"/>
    <interval begin="420.00" end="480.00" id="mainline_eval_5_2" nVehContrib="34" flow="2040.00" occupancy="14.02" speed="20.27" length="5.00" nVehEntered="34"/>