<?xml version="1.0" encoding="UTF-8"?>

<!-- generated on 02/26/19 19:18:36 by Eclipse SUMO Version 1.0.1
<configuration xmlns:xsi="http://www.w3.org/2001/XMLSchema-instance" xsi:noNamespaceSchemaLocation="http://sumo.dlr.de/xsd/sumoConfiguration.xsd">

    <input>
        <net-file value="./project/ramp.net.xml"/>
        <route-files value="./project/ramp.rou.xml"/>
        <additional-files value="./project/ramp.add.xml"/>
    </input>

    <time>
        <begin value="0"/>
    </time>

    <report>
        <verbose value="true"/>
        <no-step-log value="true"/>
    </report>

    <traci_server>
        <remote-port value="31988"/>
    </traci_server>

    <random_number>
        <seed value="348913310"/>
    </random_number>

    <gui_only>
        <quit-on-end value="true"/>
        <start value="true"/>
    </gui_only>

</configuration>
-->

<detector xmlns:xsi="http://www.w3.org/2001/XMLSchema-instance" xsi:noNamespaceSchemaLocation="http://sumo.dlr.de/xsd/det_e1_file.xsd">
    <interval begin="0.00" end="60.00" id="mainline_eval_0_0" nVehContrib="0" flow="0.00" occupancy="0.00" speed="-1.00" length="-1.00" nVehEntered="0"/>
    <interval begin="0.00" end="60.00" id="mainline_eval_0_1" nVehContrib="0" flow="0.00" occupancy="0.00" speed="-1.00" length="-1.00" nVehEntered="0"/>
    <interval begin="0.00" end="60.00" id="mainline_eval_0_2" nVehContrib="0" flow="0.00" occupancy="0.00" speed="-1.00" length="-1.00" nVehEntered="0"/>
    <interval begin="0.00" end="60.00" id="mainline_eval_1_0" nVehContrib="0" flow="0.00" occupancy="0.00" speed="-1.00" length="-1.00" nVehEntered="0"/>
    <interval begin="0.00" end="60.00" id="mainline_eval_1_1" nVehContrib="0" flow="0.00" occupancy="0.00" speed="-1.00" length="-1.00" nVehEntered="0"/>
    <interval begin="0.00" end="60.00" id="mainline_eval_1_2" nVehContrib="0" flow="0.00" occupancy="0.00" speed="-1.00" length="-1.00" nVehEntered="0"/>
    <interval begin="0.00" end="60.00" id="mainline_eval_2_0" nVehContrib="0" flow="0.00" occupancy="0.00" speed="-1.00" length="-1.00" nVehEntered="0"/>
    <interval begin="0.00" end="60.00" id="mainline_eval_2_1" nVehContrib="0" flow="0.00" occupancy="0.00" speed="-1.00" length="-1.00" nVehEntered="0"/>
    <interval begin="0.00" end="60.00" id="mainline_eval_2_2" nVehContrib="0" flow="0.00" occupancy="0.00" speed="-1.00" length="-1.00" nVehEntered="0"/>
    <interval begin="0.00" end="60.00" id="mainline_eval_3_0" nVehContrib="0" flow="0.00" occupancy="0.00" speed="-1.00" length="-1.00" nVehEntered="0"/>
    <interval begin="0.00" end="60.00" id="mainline_eval_3_1" nVehContrib="0" flow="0.00" occupancy="0.00" speed="-1.00" length="-1.00" nVehEntered="0"/>
    <interval begin="0.00" end="60.00" id="mainline_eval_3_2" nVehContrib="0" flow="0.00" occupancy="0.00" speed="-1.00" length="-1.00" nVehEntered="0"/>
    <interval begin="0.00" end="60.00" id="mainline_eval_3_3" nVehContrib="0" flow="0.00" occupancy="0.00" speed="-1.00" length="-1.00" nVehEntered="0"/>
    <interval begin="0.00" end="60.00" id="mainline_eval_4_0" nVehContrib="0" flow="0.00" occupancy="0.00" speed="-1.00" length="-1.00" nVehEntered="0"/>
    <interval begin="0.00" end="60.00" id="mainline_eval_4_1" nVehContrib="0" flow="0.00" occupancy="0.00" speed="-1.00" length="-1.00" nVehEntered="0"/>
    <interval begin="0.00" end="60.00" id="mainline_eval_4_2" nVehContrib="0" flow="0.00" occupancy="0.00" speed="-1.00" length="-1.00" nVehEntered="0"/>
    <interval begin="0.00" end="60.00" id="mainline_eval_4_3" nVehContrib="0" flow="0.00" occupancy="0.00" speed="-1.00" length="-1.00" nVehEntered="0"/>
    <interval begin="0.00" end="60.00" id="mainline_eval_5_0" nVehContrib="0" flow="0.00" occupancy="0.00" speed="-1.00" length="-1.00" nVehEntered="0"/>
    <interval begin="0.00" end="60.00" id="mainline_eval_5_1" nVehContrib="0" flow="0.00" occupancy="0.00" speed="-1.00" length="-1.00" nVehEntered="0"/>
    <interval begin="0.00" end="60.00" id="mainline_eval_5_2" nVehContrib="0" flow="0.00" occupancy="0.00" speed="-1.00" length="-1.00" nVehEntered="0"/>
    <interval begin="0.00" end="60.00" id="mainline_eval_6_0" nVehContrib="0" flow="0.00" occupancy="0.00" speed="-1.00" length="-1.00" nVehEntered="0"/>
    <interval begin="0.00" end="60.00" id="mainline_eval_6_1" nVehContrib="0" flow="0.00" occupancy="0.00" speed="-1.00" length="-1.00" nVehEntered="0"/>
    <interval begin="0.00" end="60.00" id="mainline_eval_6_2" nVehContrib="0" flow="0.00" occupancy="0.00" speed="-1.00" length="-1.00" nVehEntered="0"/>
    <interval begin="60.00" end="120.00" id="mainline_eval_0_0" nVehContrib="13" flow="780.00" occupancy="5.71" speed="19.15" length="5.00" nVehEntered="13"/>
    <interval begin="60.00" end="120.00" id="mainline_eval_0_1" nVehContrib="17" flow="1020.00" occupancy="6.83" speed="20.88" length="5.00" nVehEntered="17"/>
    <interval begin="60.00" end="120.00" id="mainline_eval_0_2" nVehContrib="21" flow="1260.00" occupancy="7.92" speed="22.16" length="5.00" nVehEntered="21"/>
    <interval begin="60.00" end="120.00" id="mainline_eval_1_0" nVehContrib="7" flow="420.00" occupancy="2.93" speed="20.19" length="5.00" nVehEntered="7"/>
    <interval begin="60.00" end="120.00" id="mainline_eval_1_1" nVehContrib="11" flow="660.00" occupancy="4.17" speed="22.05" length="5.00" nVehEntered="11"/>
    <interval begin="60.00" end="120.00" id="mainline_eval_1_2" nVehContrib="11" flow="660.00" occupancy="3.96" speed="23.17" length="5.00" nVehEntered="11"/>
    <interval begin="60.00" end="120.00" id="mainline_eval_2_0" nVehContrib="4" flow="240.00" occupancy="1.57" speed="21.46" length="5.00" nVehEntered="4"/>
    <interval begin="60.00" end="120.00" id="mainline_eval_2_1" nVehContrib="4" flow="240.00" occupancy="1.49" speed="22.33" length="5.00" nVehEntered="4"/>
    <interval begin="60.00" end="120.00" id="mainline_eval_2_2" nVehContrib="3" flow="180.00" occupancy="1.06" speed="23.64" length="5.00" nVehEntered="3"/>
    <interval begin="60.00" end="120.00" id="mainline_eval_3_0" nVehContrib="0" flow="0.00" occupancy="0.00" speed="-1.00" length="-1.00" nVehEntered="0"/>
    <interval begin="60.00" end="120.00" id="mainline_eval_3_1" nVehContrib="2" flow="120.00" occupancy="1.03" speed="23.39" length="5.00" nVehEntered="3"/>
    <interval begin="60.00" end="120.00" id="mainline_eval_3_2" nVehContrib="2" flow="120.00" occupancy="0.69" speed="24.13" length="5.00" nVehEntered="2"/>
    <interval begin="60.00" end="120.00" id="mainline_eval_3_3" nVehContrib="1" flow="60.00" occupancy="0.35" speed="24.00" length="5.00" nVehEntered="1"/>
    <interval begin="60.00" end="120.00" id="mainline_eval_4_0" nVehContrib="0" flow="0.00" occupancy="0.00" speed="-1.00" length="-1.00" nVehEntered="0"/>
    <interval begin="60.00" end="120.00" id="mainline_eval_4_1" nVehContrib="2" flow="120.00" occupancy="0.72" speed="23.23" length="5.00" nVehEntered="2"/>
    <interval begin="60.00" end="120.00" id="mainline_eval_4_2" nVehContrib="2" flow="120.00" occupancy="0.69" speed="24.13" length="5.00" nVehEntered="2"/>
    <interval begin="60.00" end="120.00" id="mainline_eval_4_3" nVehContrib="1" flow="60.00" occupancy="0.35" speed="24.02" length="5.00" nVehEntered="1"/>
    <interval begin="60.00" end="120.00" id="mainline_eval_5_0" nVehContrib="1" flow="60.00" occupancy="0.36" speed="22.93" length="5.00" nVehEntered="1"/>
    <interval begin="60.00" end="120.00" id="mainline_eval_5_1" nVehContrib="0" flow="0.00" occupancy="0.00" speed="-1.00" length="-1.00" nVehEntered="0"/>
    <interval begin="60.00" end="120.00" id="mainline_eval_5_2" nVehContrib="0" flow="0.00" occupancy="0.00" speed="-1.00" length="-1.00" nVehEntered="0"/>
    <interval begin="60.00" end="120.00" id="mainline_eval_6_0" nVehContrib="0" flow="0.00" occupancy="0.00" speed="-1.00" length="-1.00" nVehEntered="0"/>
    <interval begin="60.00" end="120.00" id="mainline_eval_6_1" nVehContrib="0" flow="0.00" occupancy="0.00" speed="-1.00" length="-1.00" nVehEntered="0"/>
    <interval begin="60.00" end="120.00" id="mainline_eval_6_2" nVehContrib="0" flow="0.00" occupancy="0.00" speed="-1.00" length="-1.00" nVehEntered="0"/>
    <interval begin="120.00" end="180.00" id="mainline_eval_0_0" nVehContrib="16" flow="960.00" occupancy="7.44" speed="17.99" length="5.00" nVehEntered="16"/>
    <interval begin="120.00" end="180.00" id="mainline_eval_0_1" nVehContrib="23" flow="1380.00" occupancy="9.97" speed="19.26" length="5.00" nVehEntered="23"/>
    <interval begin="120.00" end="180.00" id="mainline_eval_0_2" nVehContrib="33" flow="1980.00" occupancy="13.62" speed="20.20" length="5.00" nVehEntered="33"/>
    <interval begin="120.00" end="180.00" id="mainline_eval_1_0" nVehContrib="18" flow="1080.00" occupancy="8.41" speed="17.89" length="5.00" nVehEntered="18"/>
    <interval begin="120.00" end="180.00" id="mainline_eval_1_1" nVehContrib="22" flow="1320.00" occupancy="9.74" speed="18.88" length="5.00" nVehEntered="22"/>
    <interval begin="120.00" end="180.00" id="mainline_eval_1_2" nVehContrib="29" flow="1740.00" occupancy="11.77" speed="20.58" length="5.00" nVehEntered="29"/>
    <interval begin="120.00" end="180.00" id="mainline_eval_2_0" nVehContrib="12" flow="720.00" occupancy="5.36" speed="18.70" length="5.00" nVehEntered="12"/>
    <interval begin="120.00" end="180.00" id="mainline_eval_2_1" nVehContrib="21" flow="1260.00" occupancy="8.50" speed="20.69" length="5.00" nVehEntered="21"/>
    <interval begin="120.00" end="180.00" id="mainline_eval_2_2" nVehContrib="24" flow="1440.00" occupancy="8.86" speed="22.62" length="5.00" nVehEntered="24"/>
    <interval begin="120.00" end="180.00" id="mainline_eval_3_0" nVehContrib="4" flow="240.00" occupancy="2.91" speed="12.11" length="5.00" nVehEntered="5"/>
    <interval begin="120.00" end="180.00" id="mainline_eval_3_1" nVehContrib="17" flow="1020.00" occupancy="9.13" speed="15.50" length="5.00" nVehEntered="16"/>
    <interval begin="120.00" end="180.00" id="mainline_eval_3_2" nVehContrib="20" flow="1200.00" occupancy="8.20" speed="20.45" length="5.00" nVehEntered="20"/>
    <interval begin="120.00" end="180.00" id="mainline_eval_3_3" nVehContrib="24" flow="1440.00" occupancy="8.78" speed="22.82" length="5.00" nVehEntered="24"/>
    <interval begin="120.00" end="180.00" id="mainline_eval_4_0" nVehContrib="2" flow="120.00" occupancy="2.01" speed="8.32" length="5.00" nVehEntered="3"/>
    <interval begin="120.00" end="180.00" id="mainline_eval_4_1" nVehContrib="16" flow="960.00" occupancy="9.65" speed="16.44" length="5.00" nVehEntered="17"/>
    <interval begin="120.00" end="180.00" id="mainline_eval_4_2" nVehContrib="21" flow="1260.00" occupancy="8.78" speed="20.16" length="5.00" nVehEntered="21"/>
    <interval begin="120.00" end="180.00" id="mainline_eval_4_3" nVehContrib="22" flow="1320.00" occupancy="8.01" speed="22.93" length="5.00" nVehEntered="22"/>
    <interval begin="120.00" end="180.00" id="mainline_eval_5_0" nVehContrib="10" flow="600.00" occupancy="4.38" speed="19.17" length="5.00" nVehEntered="10"/>
    <interval begin="120.00" end="180.00" id="mainline_eval_5_1" nVehContrib="18" flow="1080.00" occupancy="7.10" speed="21.25" length="5.00" nVehEntered="18"/>
    <interval begin="120.00" end="180.00" id="mainline_eval_5_2" nVehContrib="18" flow="1080.00" occupancy="6.45" speed="23.26" length="5.00" nVehEntered="18"/>
    <interval begin="120.00" end="180.00" id="mainline_eval_6_0" nVehContrib="10" flow="600.00" occupancy="4.31" speed="19.56" length="5.00" nVehEntered="10"/>
    <interval begin="120.00" end="180.00" id="mainline_eval_6_1" nVehContrib="16" flow="960.00" occupancy="6.35" speed="21.13" length="5.00" nVehEntered="16"/>
    <interval begin="120.00" end="180.00" id="mainline_eval_6_2" nVehContrib="17" flow="1020.00" occupancy="6.08" speed="23.30" length="5.00" nVehEntered="17"/>
    <interval begin="180.00" end="240.00" id="mainline_eval_0_0" nVehContrib="18" flow="1080.00" occupancy="8.27" speed="18.23" length="5.00" nVehEntered="18"/>
    <interval begin="180.00" end="240.00" id="mainline_eval_0_1" nVehContrib="28" flow="1680.00" occupancy="12.26" speed="19.23" length="5.00" nVehEntered="28"/>
    <interval begin="180.00" end="240.00" id="mainline_eval_0_2" nVehContrib="35" flow="2100.00" occupancy="14.19" speed="20.62" length="5.00" nVehEntered="35"/>
    <interval begin="180.00" end="240.00" id="mainline_eval_1_0" nVehContrib="20" flow="1200.00" occupancy="9.13" speed="18.35" length="5.00" nVehEntered="20"/>
    <interval begin="180.00" end="240.00" id="mainline_eval_1_1" nVehContrib="27" flow="1620.00" occupancy="11.92" speed="19.07" length="5.00" nVehEntered="27"/>
    <interval begin="180.00" end="240.00" id="mainline_eval_1_2" nVehContrib="37" flow="2220.00" occupancy="15.11" speed="20.48" length="5.00" nVehEntered="37"/>
    <interval begin="180.00" end="240.00" id="mainline_eval_2_0" nVehContrib="20" flow="1200.00" occupancy="9.67" speed="17.30" length="5.00" nVehEntered="20"/>
    <interval begin="180.00" end="240.00" id="mainline_eval_2_1" nVehContrib="27" flow="1620.00" occupancy="11.70" speed="19.28" length="5.00" nVehEntered="27"/>
    <interval begin="180.00" end="240.00" id="mainline_eval_2_2" nVehContrib="38" flow="2280.00" occupancy="15.15" speed="20.93" length="5.00" nVehEntered="38"/>
    <interval begin="180.00" end="240.00" id="mainline_eval_3_0" nVehContrib="8" flow="480.00" occupancy="6.17" speed="11.10" length="5.00" nVehEntered="7"/>
    <interval begin="180.00" end="240.00" id="mainline_eval_3_1" nVehContrib="20" flow="1200.00" occupancy="17.73" speed="11.17" length="5.00" nVehEntered="22"/>
    <interval begin="180.00" end="240.00" id="mainline_eval_3_2" nVehContrib="28" flow="1680.00" occupancy="18.11" speed="15.41" length="5.00" nVehEntered="29"/>
    <interval begin="180.00" end="240.00" id="mainline_eval_3_3" nVehContrib="36" flow="2160.00" occupancy="16.38" speed="19.73" length="5.00" nVehEntered="36"/>
    <interval begin="180.00" end="240.00" id="mainline_eval_4_0" nVehContrib="0" flow="0.00" occupancy="0.00" speed="-1.00" length="-1.00" nVehEntered="1"/>
    <interval begin="180.00" end="240.00" id="mainline_eval_4_1" nVehContrib="24" flow="1440.00" occupancy="16.72" speed="13.54" length="5.00" nVehEntered="23"/>
    <interval begin="180.00" end="240.00" id="mainline_eval_4_2" nVehContrib="31" flow="1860.00" occupancy="15.28" speed="17.29" length="5.00" nVehEntered="31"/>
    <interval begin="180.00" end="240.00" id="mainline_eval_4_3" nVehContrib="35" flow="2100.00" occupancy="14.30" speed="20.42" length="5.00" nVehEntered="35"/>
    <interval begin="180.00" end="240.00" id="mainline_eval_5_0" nVehContrib="24" flow="1440.00" occupancy="11.16" speed="17.98" length="5.00" nVehEntered="24"/>
    <interval begin="180.00" end="240.00" id="mainline_eval_5_1" nVehContrib="31" flow="1860.00" occupancy="13.68" speed="18.92" length="5.00" nVehEntered="31"/>
    <interval begin="180.00" end="240.00" id="mainline_eval_5_2" nVehContrib="34" flow="2040.00" occupancy="13.95" speed="20.36" length="5.00" nVehEntered="34"/>
    <interval begin="180.00" end="240.00" id="mainline_eval_6_0" nVehContrib="21" flow="1260.00" occupancy="9.65" speed="18.17" length="5.00" nVehEntered="21"/>
    <interval begin="180.00" end="240.00" id="mainline_eval_6_1" nVehContrib="30" flow="1800.00" occupancy="13.53" speed="19.03" length="5.00" nVehEntered="31"/>
    <interval begin="180.00" end="240.00" id="mainline_eval_6_2" nVehContrib="32" flow="1920.00" occupancy="12.95" speed="20.64" length="5.00" nVehEntered="32"/>
    <interval begin="240.00" end="300.00" id="mainline_eval_0_0" nVehContrib="15" flow="900.00" occupancy="6.92" speed="18.17" length="5.00" nVehEntered="15"/>
    <interval begin="240.00" end="300.00" id="mainline_eval_0_1" nVehContrib="23" flow="1380.00" occupancy="10.08" speed="19.07" length="5.00" nVehEntered="24"/>
    <interval begin="240.00" end="300.00" id="mainline_eval_0_2" nVehContrib="32" flow="1920.00" occupancy="14.75" speed="19.54" length="5.00" nVehEntered="32"/>
    <interval begin="240.00" end="300.00" id="mainline_eval_1_0" nVehContrib="15" flow="900.00" occupancy="6.76" speed="18.53" length="5.00" nVehEntered="15"/>
    <interval begin="240.00" end="300.00" id="mainline_eval_1_1" nVehContrib="27" flow="1620.00" occupancy="11.58" speed="19.52" length="5.00" nVehEntered="27"/>
    <interval begin="240.00" end="300.00" id="mainline_eval_1_2" nVehContrib="31" flow="1860.00" occupancy="12.71" speed="20.39" length="5.00" nVehEntered="31"/>
    <interval begin="240.00" end="300.00" id="mainline_eval_2_0" nVehContrib="21" flow="1260.00" occupancy="10.86" speed="17.62" length="5.00" nVehEntered="21"/>
    <interval begin="240.00" end="300.00" id="mainline_eval_2_1" nVehContrib="28" flow="1680.00" occupancy="12.72" speed="18.49" length="5.00" nVehEntered="29"/>
    <interval begin="240.00" end="300.00" id="mainline_eval_2_2" nVehContrib="31" flow="1860.00" occupancy="12.64" speed="20.92" length="5.00" nVehEntered="32"/>
    <interval begin="240.00" end="300.00" id="mainline_eval_3_0" nVehContrib="10" flow="600.00" occupancy="7.23" speed="11.80" length="5.00" nVehEntered="10"/>
    <interval begin="240.00" end="300.00" id="mainline_eval_3_1" nVehVehContrib="18" flow="1080.00" occupancy="18.77" speed="10.50" length="5.00" nVehEntered="17"/>
    <interval begin="240.00" end="300.00" id="mainline_eval_3_2" nVehContrib="29" flow="1740.00" occupancy="14.29" speed="17.67" length="5.00" nVehEntered="28"/>
    <interval begin="240.00" end="300.00" id="mainline_eval_3_3" nVehContrib="33" flow="1980.00" occupancy="12.56" speed="21.29" length="5.00" nVehEntered="32"/>
    <interval begin="240.00" end="300.00" id="mainline_eval_4_0" nVehContrib="1" flow="60.00" occupancy="1.15" speed="7.22" length="5.00" nVehEntered="2"/>
    <interval begin="240.00" end="300.00" id="mainline_eval_4_1" nVehContrib="21" flow="1260.00" occupancy="17.09" speed="11.75" length="5.00" nVehEntered="21"/>
    <interval begin="240.00" end="300.00" id="mainline_eval_4_2" nVehContrib="30" flow="1800.00" occupancy="18.29" speed="16.70" length="5.00" nVehEntered="30"/>
    <interval begin="240.00" end="300.00" id="mainline_eval_4_3" nVehContrib="34" flow="2040.00" occupancy="13.68" speed="21.29" length="5.00" nVehEntered="35"/>
    <interval begin="240.00" end="300.00" id="mainline_eval_5_0" nVehContrib="28" flow="1680.00" occupancy="12.63" speed="18.53" length="5.00" nVehEntered="28"/>
    <interval begin="240.00" end="300.00" id="mainline_eval_5_1" nVehContrib="35" flow="2100.00" occupancy="15.41" speed="18.95" length="5.00" nVehEntered="35"/>
    <interval begin="240.00" end="300.00" id="mainline_eval_5_2" nVehContrib="37" flow="2220.00" occupancy="14.82" speed="20.83" length="5.00" nVehEntered="37"/>
    <interval begin="240.00" end="300.00" id="mainline_eval_6_0" nVehContrib="28" flow="1680.00" occupancy="12.90" speed="18.18" length="5.00" nVehEntered="28"/>
    <interval begin="240.00" end="300.00" id="mainline_eval_6_1" nVehContrib="34" flow="2040.00" occupancy="15.10" speed="19.22" length="5.00" nVehEntered="35"/>
    <interval begin="240.00" end="300.00" id="mainline_eval_6_2" nVehContrib="36" flow="2160.00" occupancy="13.90" speed="21.64" length="5.00" nVehEntered="36"/>
</detector>
