<?xml version="1.0" encoding="UTF-8"?>

<!-- generated on 01/10/19 23:17:44 by Eclipse SUMO GUI Version 1.0.1
<configuration xmlns:xsi="http://www.w3.org/2001/XMLSchema-instance" xsi:noNamespaceSchemaLocation="http://sumo.dlr.de/xsd/sumoConfiguration.xsd">

    <input>
        <net-file value="./Project/ramp.net.xml"/>
        <route-files value="./Project/ramp.rou.xml"/>
        <additional-files value="./Project/ramp.add.xml"/>
    </input>

    <time>
        <begin value="0"/>
    </time>

    <report>
        <verbose value="true"/>
        <no-step-log value="true"/>
    </report>

    <traci_server>
        <remote-port value="58425"/>
    </traci_server>

    <random_number>
        <seed value="42"/>
    </random_number>

    <gui_only>
        <quit-on-end value="true"/>
        <start value="true"/>
    </gui_only>

</configuration>
-->

<detector xmlns:xsi="http://www.w3.org/2001/XMLSchema-instance" xsi:noNamespaceSchemaLocation="http://sumo.dlr.de/xsd/det_e1_file.xsd">
    <interval begin="0.00" end="60.00" id="mainline_eval_0_0" nVehContrib="1" flow="60.00" occupancy="0.33" speed="25.31" length="5.00" nVehEntered="1"/>
    <interval begin="0.00" end="60.00" id="mainline_eval_0_1" nVehContrib="0" flow="0.00" occupancy="0.00" speed="-1.00" length="-1.00" nVehEntered="0"/>
    <interval begin="0.00" end="60.00" id="mainline_eval_0_2" nVehContrib="0" flow="0.00" occupancy="0.00" speed="-1.00" length="-1.00" nVehEntered="0"/>
    <interval begin="0.00" end="60.00" id="mainline_eval_1_0" nVehContrib="0" flow="0.00" occupancy="0.00" speed="-1.00" length="-1.00" nVehEntered="0"/>
    <interval begin="0.00" end="60.00" id="mainline_eval_1_1" nVehContrib="0" flow="0.00" occupancy="0.00" speed="-1.00" length="-1.00" nVehEntered="0"/>
    <interval begin="0.00" end="60.00" id="mainline_eval_1_2" nVehContrib="0" flow="0.00" occupancy="0.00" speed="-1.00" length="-1.00" nVehEntered="0"/>
    <interval begin="0.00" end="60.00" id="mainline_eval_2_0" nVehContrib="0" flow="0.00" occupancy="0.00" speed="-1.00" length="-1.00" nVehEntered="0"/>
    <interval begin="0.00" end="60.00" id="mainline_eval_2_1" nVehContrib="0" flow="0.00" occupancy="0.00" speed="-1.00" length="-1.00" nVehEntered="0"/>
    <interval begin="0.00" end="60.00" id="mainline_eval_2_2" nVehContrib="0" flow="0.00" occupancy="0.00" speed="-1.00" length="-1.00" nVehEntered="0"/>
    <interval begin="0.00" end="60.00" id="mainline_eval_3_0" nVehContrib="0" flow="0.00" occupancy="0.00" speed="-1.00" length="-1.00" nVehEntered="0"/>
    <interval begin="0.00" end="60.00" id="mainline_eval_3_1" nVehContrib="0" flow="0.00" occupancy="0.00" speed="-1.00" length="-1.00" nVehEntered="0"/>
    <interval begin="0.00" end="60.00" id="mainline_eval_3_2" nVehContrib="0" flow="0.00" occupancy="0.00" speed="-1.00" length="-1.00" nVehEntered="0"/>
    <interval begin="0.00" end="60.00" id="mainline_eval_3_3" nVehContrib="0" flow="0.00" occupancy="0.00" speed="-1.00" length="-1.00" nVehEntered="0"/>
    <interval begin="0.00" end="60.00" id="mainline_eval_4_0" nVehContrib="0" flow="0.00" occupancy="0.00" speed="-1.00" length="-1.00" nVehEntered="0"/>
    <interval begin="0.00" end="60.00" id="mainline_eval_4_1" nVehContrib="0" flow="0.00" occupancy="0.00" speed="-1.00" length="-1.00" nVehEntered="0"/>
    <interval begin="0.00" end="60.00" id="mainline_eval_4_2" nVehContrib="0" flow="0.00" occupancy="0.00" speed="-1.00" length="-1.00" nVehEntered="0"/>
    <interval begin="0.00" end="60.00" id="mainline_eval_4_3" nVehContrib="0" flow="0.00" occupancy="0.00" speed="-1.00" length="-1.00" nVehEntered="0"/>
    <interval begin="0.00" end="60.00" id="mainline_eval_5_0" nVehContrib="0" flow="0.00" occupancy="0.00" speed="-1.00" length="-1.00" nVehEntered="0"/>
    <interval begin="0.00" end="60.00" id="mainline_eval_5_1" nVehContrib="0" flow="0.00" occupancy="0.00" speed="-1.00" length="-1.00" nVehEntered="0"/>
    <interval begin="0.00" end="60.00" id="mainline_eval_5_2" nVehContrib="0" flow="0.00" occupancy="0.00" speed="-1.00" length="-1.00" nVehEntered="0"/>
    <interval begin="0.00" end="60.00" id="mainline_eval_6_0" nVehContrib="0" flow="0.00" occupancy="0.00" speed="-1.00" length="-1.00" nVehEntered="0"/>
    <interval begin="0.00" end="60.00" id="mainline_eval_6_1" nVehContrib="0" flow="0.00" occupancy="0.00" speed="-1.00" length="-1.00" nVehEntered="0"/>
    <interval begin="0.00" end="60.00" id="mainline_eval_6_2" nVehContrib="0" flow="0.00" occupancy="0.00" speed="-1.00" length="-1.00" nVehEntered="0"/>
    <interval begin="60.00" end="120.00" id="mainline_eval_0_0" nVehContrib="15" flow="900.00" occupancy="6.45" speed="19.61" length="5.00" nVehEntered="15"/>
    <interval begin="60.00" end="120.00" id="mainline_eval_0_1" nVehContrib="15" flow="900.00" occupancy="6.20" speed="20.22" length="5.00" nVehEntered="15"/>
    <interval begin="60.00" end="120.00" id="mainline_eval_0_2" nVehContrib="22" flow="1320.00" occupancy="8.59" speed="21.39" length="5.00" nVehEntered="22"/>
    <interval begin="60.00" end="120.00" id="mainline_eval_1_0" nVehContrib="10" flow="600.00" occupancy="4.04" speed="20.99" length="5.00" nVehEntered="10"/>
    <interval begin="60.00" end="120.00" id="mainline_eval_1_1" nVehContrib="9" flow="540.00" occupancy="3.68" speed="20.66" length="5.00" nVehEntered="9"/>
    <interval begin="60.00" end="120.00" id="mainline_eval_1_2" nVehContrib="10" flow="600.00" occupancy="4.04" speed="20.63" length="5.00" nVehEntered="10"/>
    <interval begin="60.00" end="120.00" id="mainline_eval_2_0" nVehContrib="5" flow="300.00" occupancy="1.77" speed="23.58" length="5.00" nVehEntered="5"/>
    <interval begin="60.00" end="120.00" id="mainline_eval_2_1" nVehContrib="3" flow="180.00" occupancy="1.06" speed="23.71" length="5.00" nVehEntered="3"/>
    <interval begin="60.00" end="120.00" id="mainline_eval_2_2" nVehContrib="0" flow="0.00" occupancy="0.00" speed="-1.00" length="-1.00" nVehEntered="0"/>
    <interval begin="60.00" end="120.00" id="mainline_eval_3_0" nVehContrib="0" flow="0.00" occupancy="0.00" speed="-1.00" length="-1.00" nVehEntered="0"/>
    <interval begin="60.00" end="120.00" id="mainline_eval_3_1" nVehContrib="4" flow="240.00" occupancy="1.39" speed="23.95" length="5.00" nVehEntered="4"/>
    <interval begin="60.00" end="120.00" id="mainline_eval_3_2" nVehContrib="1" flow="60.00" occupancy="0.33" speed="25.12" length="5.00" nVehEntered="1"/>
    <interval begin="60.00" end="120.00" id="mainline_eval_3_3" nVehContrib="0" flow="0.00" occupancy="0.00" speed="-1.00" length="-1.00" nVehEntered="0"/>
    <interval begin="60.00" end="120.00" id="mainline_eval_4_0" nVehContrib="0" flow="0.00" occupancy="0.00" speed="-1.00" length="-1.00" nVehEntered="0"/>
    <interval begin="60.00" end="120.00" id="mainline_eval_4_1" nVehContrib="3" flow="180.00" occupancy="1.03" speed="24.36" length="5.00" nVehEntered="3"/>
    <interval begin="60.00" end="120.00" id="mainline_eval_4_2" nVehContrib="1" flow="60.00" occupancy="0.34" speed="24.62" length="5.00" nVehEntered="1"/>
    <interval begin="60.00" end="120.00" id="mainline_eval_4_3" nVehContrib="0" flow="0.00" occupancy="0.00" speed="-1.00" length="-1.00" nVehEntered="0"/>
    <interval begin="60.00" end="120.00" id="mainline_eval_5_0" nVehContrib="2" flow="120.00" occupancy="0.67" speed="24.75" length="5.00" nVehEntered="2"/>
    <interval begin="60.00" end="120.00" id="mainline_eval_5_1" nVehContrib="0" flow="0.00" occupancy="0.00" speed="-1.00" length="-1.00" nVehEntered="0"/>
    <interval begin="60.00" end="120.00" id="mainline_eval_5_2" nVehContrib="0" flow="0.00" occupancy="0.00" speed="-1.00" length="-1.00" nVehEntered="0"/>
    <interval begin="60.00" end="120.00" id="mainline_eval_6_0" nVehContrib="1" flow="60.00" occupancy="0.32" speed="25.67" length="5.00" nVehEntered="1"/>
    <interval begin="60.00" end="120.00" id="mainline_eval_6_1" nVehContrib="0" flow="0.00" occupancy="0.00" speed="-1.00" length="-1.00" nVehEntered="0"/>
    <interval begin="60.00" end="120.00" id="mainline_eval_6_2" nVehContrib="0" flow="0.00" occupancy="0.00" speed="-1.00" length="-1.00" nVehEntered="0"/>
    <interval begin="120.00" end="180.00" id="mainline_eval_0_0" nVehContrib="16" flow="960.00" occupancy="7.39" speed="18.13" length="5.00" nVehEntered="16"/>
    <interval begin="120.00" end="180.00" id="mainline_eval_0_1" nVehContrib="26" flow="1560.00" occupancy="11.06" speed="19.63" length="5.00" nVehEntered="26"/>
    <interval begin="120.00" end="180.00" id="mainline_eval_0_2" nVehContrib="31" flow="1860.00" occupancy="12.72" speed="20.44" length="5.00" nVehEntered="31"/>
    <interval begin="120.00" end="180.00" id="mainline_eval_1_0" nVehContrib="14" flow="840.00" occupancy="6.25" speed="18.68" length="5.00" nVehEntered="14"/>
    <interval begin="120.00" end="180.00" id="mainline_eval_1_1" nVehContrib="26" flow="1560.00" occupancy="11.07" speed="19.66" length="5.00" nVehEntered="26"/>
    <interval begin="120.00" end="180.00" id="mainline_eval_1_2" nVehContrib="26" flow="1560.00" occupancy="10.37" speed="20.95" length="5.00" nVehEntered="26"/>
    <interval begin="120.00" end="180.00" id="mainline_eval_2_0" nVehContrib="16" flow="960.00" occupancy="7.00" speed="19.11" length="5.00" nVehEntered="16"/>
    <interval begin="120.00" end="180.00" id="mainline_eval_2_1" nVehContrib="27" flow="1620.00" occupancy="11.63" speed="19.40" length="5.00" nVehEntered="27"/>
    <interval begin="120.00" end="180.00" id="mainline_eval_2_2" nVehContrib="31" flow="1860.00" occupancy="12.39" speed="20.94" length="5.00" nVehEntered="31"/>
    <interval begin="120.00" end="180.00" id="mainline_eval_3_0" nVehContrib="1" flow="60.00" occupancy="0.63" speed="13.25" length="5.00" nVehEntered="1"/>
    <interval begin="120.00" end="180.00" id="mainline_eval_3_1" nVehContrib="18" flow="1080.00" occupancy="9.04" speed="17.09" length="5.00" nVehEntered="18"/>
    <interval begin="120.00" end="180.00" id="mainline_eval_3_2" nVehContrib="25" flow="1500.00" occupancy="10.55" speed="19.88" length="5.00" nVehEntered="25"/>
    <interval begin="120.00" end="180.00" id="mainline_eval_3_3" nVehContrib="25" flow="1500.00" occupancy="10.26" speed="20.43" length="5.00" nVehEntered="25"/>
    <interval begin="120.00" end="180.00" id="mainline_eval_4_0" nVehContrib="1" flow="60.00" occupancy="0.68" speed="12.28" length="5.00" nVehEntered="1"/>
    <interval begin="120.00" end="180.00" id="mainline_eval_4_1" nVehContrib="18" flow="1080.00" occupancy="8.46" speed="18.01" length="5.00" nVehEntered="18"/>
    <interval begin="120.00" end="180.00" id="mainline_eval_4_2" nVehContrib="24" flow="1440.00" occupancy="10.03" speed="20.02" length="5.00" nVehEntered="24"/>
    <interval begin="120.00" end="180.00" id="mainline_eval_4_3" nVehContrib="25" flow="1500.00" occupancy="10.41" speed="20.13" length="5.00" nVehEntered="25"/>
    <interval begin="120.00" end="180.00" id="mainline_eval_5_0" nVehContrib="15" flow="900.00" occupancy="6.55" speed="19.27" length="5.00" nVehEntered="15"/>
    <interval begin="120.00" end="180.00" id="mainline_eval_5_1" nVehContrib="17" flow="1020.00" occupancy="7.13" speed="20.07" length="5.00" nVehEntered="17"/>
    <interval begin="120.00" end="180.00" id="mainline_eval_5_2" nVehContrib="18" flow="1080.00" occupancy="7.51" speed="20.14" length="5.00" nVehEntered="18"/>
    <interval begin="120.00" end="180.00" id="mainline_eval_6_0" nVehContrib="13" flow="780.00" occupancy="5.47" speed="20.04" length="5.00" nVehEntered="13"/>
    <interval begin="120.00" end="180.00" id="mainline_eval_6_1" nVehContrib="15" flow="900.00" occupancy="6.28" speed="20.08" length="5.00" nVehEntered="15"/>
    <interval begin="120.00" end="180.00" id="mainline_eval_6_2" nVehContrib="15" flow="900.00" occupancy="6.28" speed="20.08" length="5.00" nVehEntered="15"/>
    <interval begin="180.00" end="240.00" id="mainline_eval_0_0" nVehContrib="14" flow="840.00" occupancy="6.76" speed="17.32" length="5.00" nVehEntered="14"/>
    <interval begin="180.00" end="240.00" id="mainline_eval_0_1" nVehContrib="26" flow="1560.00" occupancy="11.31" speed="19.18" length="5.00" nVehEntered="26"/>
    <interval begin="180.00" end="240.00" id="mainline_eval_0_2" nVehContrib="33" flow="1980.00" occupancy="14.04" speed="19.66" length="5.00" nVehEntered="33"/>
    <interval begin="180.00" end="240.00" id="mainline_eval_1_0" nVehContrib="19" flow="1140.00" occupancy="9.02" speed="17.70" length="5.00" nVehEntered="19"/>
    <interval begin="180.00" end="240.00" id="mainline_eval_1_1" nVehContrib="28" flow="1680.00" occupancy="11.88" speed="19.68" length="5.00" nVehEntered="28"/>
    <interval begin="180.00" end="240.00" id="mainline_eval_1_2" nVehContrib="39" flow="2340.00" occupancy="16.29" speed="20.00" length="5.00" nVehEntered="39"/>
    <interval begin="180.00" end="240.00" id="mainline_eval_2_0" nVehContrib="13" flow="780.00" occupancy="6.22" speed="17.53" length="5.00" nVehEntered="14"/>
    <interval begin="180.00" end="240.00" id="mainline_eval_2_1" nVehContrib="24" flow="1440.00" occupancy="12.82" speed="17.19" length="5.00" nVehEntered="24"/>
    <interval begin="180.00" end="240.00" id="mainline_eval_2_2" nVehContrib="32" flow="1920.00" occupancy="14.05" speed="19.00" length="5.00" nVehEntered="32"/>
    <interval begin="180.00" end="240.00" id="mainline_eval_3_0" nVehContrib="2" flow="120.00" occupancy="1.57" speed="10.85" length="5.00" nVehEntered="2"/>
    <interval begin="180.00" end="240.00" id="mainline_eval_3_1" nVehContrib="19" flow="1140.00" occupancy="10.74" speed="15.58" length="5.00" nVehEntered="19"/>
    <interval begin="180.00" end="240.00" id="mainline_eval_3_2" nVehContrib="25" flow="1500.00" occupancy="11.28" speed="18.68" length="5.00" nVehEntered="25"/>
    <interval begin="180.00" end="240.00" id="mainline_eval_3_3" nVehContrib="29" flow="1740.00" occupancy="12.63" speed="19.20" length="5.00" nVehEntered="29"/>
    <interval begin="180.00" end="240.00" id="mainline_eval_4_0" nVehContrib="0" flow="0.00" occupancy="0.00" speed="-1.00" length="-1.00" nVehEntered="0"/>
    <interval begin="180.00" end="240.00" id="mainline_eval_4_1" nVehContrib="21" flow="1260.00" occupancy="10.59" speed="16.67" length="5.00" nVehEntered="21"/>
    <interval begin="180.00" end="240.00" id="mainline_eval_4_2" nVehContrib="24" flow="1440.00" occupancy="10.55" speed="19.06" length="5.00" nVehEntered="24"/>
    <interval begin="180.00" end="240.00" id="mainline_eval_4_3" nVehContrib="28" flow="1680.00" occupancy="12.08" speed="19.39" length="5.00" nVehEntered="28"/>
    <interval begin="180.00" end="240.00" id="mainline_eval_5_0" nVehContrib="18" flow="1080.00" occupancy="8.12" speed="18.59" length="5.00" nVehEntered="19"/>
    <interval begin="180.00" end="240.00" id="mainline_eval_5_1" nVehContrib="27" flow="1620.00" occupancy="11.82" speed="19.78" length="5.00" nVehEntered="28"/>
    <interval begin="180.00" end="240.00" id="mainline_eval_5_2" nVehContrib="28" flow="1680.00" occupancy="11.52" speed="20.31" length="5.00" nVehEntered="28"/>
    <interval begin="180.00" end="240.00" id="mainline_eval_6_0" nVehContrib="19" flow="1140.00" occupancy="8.49" speed="18.68" length="5.00" nVehEntered="19"/>
    <interval begin="180.00" end="240.00" id="mainline_eval_6_1" nVehContrib="27" flow="1620.00" occupancy="11.20" speed="20.13" length="5.00" nVehEntered="27"/>
    <interval begin="180.00" end="240.00" id="mainline_eval_6_2" nVehContrib="28" flow="1680.00" occupancy="11.32" speed="20.64" length="5.00" nVehEntered="28"/>
    <interval begin="240.00" end="300.00" id="mainline_eval_0_0" nVehContrib="19" flow="1140.00" occupancy="8.93" speed="17.82" length="5.00" nVehEntered="19"/>
    <interval begin="240.00" end="300.00" id="mainline_eval_0_1" nVehContrib="29" flow="1740.00" occupancy="12.81" speed="18.99" length="5.00" nVehEntered="29"/>
    <interval begin="240.00" end="300.00" id="mainline_eval_0_2" nVehContrib="36" flow="2160.00" occupancy="14.50" speed="20.83" length="5.00" nVehEntered="37"/>
    <interval begin="240.00" end="300.00" id="mainline_eval_1_0" nVehContrib="18" flow="1080.00" occupancy="8.52" speed="18.33" length="5.00" nVehEntered="19"/>
    <interval begin="240.00" end="300.00" id="mainline_eval_1_1" nVehContrib="25" flow="1500.00" occupancy="11.38" speed="18.47" length="5.00" nVehEntered="25"/>
    <interval begin="240.00" end="300.00" id="mainline_eval_1_2" nVehContrib="32" flow="1920.00" occupancy="13.15" speed="20.37" length="5.00" nVehEntered="33"/>
    <interval begin="240.00" end="300.00" id="mainline_eval_2_0" nVehContrib="21" flow="1260.00" occupancy="10.27" speed="17.13" length="5.00" nVehEntered="21"/>
    <interval begin="240.00" end="300.00" id="mainline_eval_2_1" nVehContrib="23" flow="1380.00" occupancy="10.49" speed="18.47" length="5.00" nVehEntered="23"/>
    <interval begin="240.00" end="300.00" id="mainline_eval_2_2" nVehContrib="32" flow="1920.00" occupancy="12.52" speed="21.35" length="5.00" nVehEntered="32"/>
    <interval begin="240.00" end="300.00" id="mainline_eval_3_0" nVehContrib="2" flow="120.00" occupancy="1.72" speed="9.97" length="5.00" nVehEntered="2"/>
    <interval begin="240.00" end="300.00" id="mainline_eval_3_1" nVehContrib="25" flow="1500.00" occupancy="14.83" speed="14.58" length="5.00" nVehEntered="25"/>
    <interval begin="240.00" end="300.00" id="mainline_eval_3_2" nVehContrib="29" flow="1740.00" occupancy="12.91" speed="18.83" length="5.00" nVehEntered="29"/>
    <interval begin="240.00" end="300.00" id="mainline_eval_3_3" nVehContrib="32" flow="1920.00" occupancy="13.13" speed="20.40" length="5.00" nVehEntered="32"/>
    <interval begin="240.00" end="300.00" id="mainline_eval_4_0" nVehContrib="1" flow="60.00" occupancy="0.73" speed="11.43" length="5.00" nVehEntered="1"/>
    <interval begin="240.00" end="300.00" id="mainline_eval_4_1" nVehContrib="25" flow="1500.00" occupancy="12.96" speed="16.18" length="5.00" nVehEntered="25"/>
    <interval begin="240.00" end="300.00" id="mainline_eval_4_2" nVehContrib="30" flow="1800.00" occupancy="13.36" speed="18.79" length="5.00" nVehEntered="30"/>
    <interval begin="240.00" end="300.00" id="mainline_eval_4_3" nVehContrib="32" flow="1920.00" occupancy="13.29" speed="20.16" length="5.00" nVehEntered="32"/>
    <interval begin="240.00" end="300.00" id="mainline_eval_5_0" nVehContrib="26" flow="1560.00" occupancy="12.77" speed="17.02" length="5.00" nVehEntered="25"/>
    <interval begin="240.00" end="300.00" id="mainline_eval_5_1" nVehContrib="35" flow="2100.00" occupancy="16.04" speed="17.78" length="5.00" nVehEntered="34"/>
    <interval begin="240.00" end="300.00" id="mainline_eval_5_2" nVehContrib="33" flow="1980.00" occupancy="13.73" speed="20.11" length="5.00" nVehEntered="34"/>
    <interval begin="240.00" end="300.00" id="mainline_eval_6_0" nVehContrib="26" flow="1560.00" occupancy="13.00" speed="16.72" length="5.00" nVehEntered="27"/>
    <interval begin="240.00" end="300.00" id="mainline_eval_6_1" nVehContrib="36" flow="2160.00" occupancy="17.74" speed="17.11" length="5.00" nVehEntered="36"/>
    <interval begin="240.00" end="300.00" id="mainline_eval_6_2" nVehContrib="35" flow="2100.00" occupancy="14.07" speed="20.77" length="5.00" nVehEntered="35"/>
    <interval begin="300.00" end="360.00" id="mainline_eval_0_0" nVehContrib="18" flow="1080.00" occupancy="7.82" speed="19.34" length="5.00" nVehEntered="18"/>
    <interval begin="300.00" end="360.00" id="mainline_eval_0_1" nVehContrib="27" flow="1620.00" occupancy="11.04" speed="20.95" length="5.00" nVehEntered="28"/>
    <interval begin="300.00" end="360.00" id="mainline_eval_0_2" nVehContrib="33" flow="1980.00" occupancy="12.72" speed="21.65" length="5.00" nVehEntered="32"/>
    <interval begin="300.00" end="360.00" id="mainline_eval_1_0" nVehContrib="23" flow="1380.00" occupancy="9.63" speed="19.37" length="5.00" nVehEntered="22"/>
    <interval begin="300.00" end="360.00" id="mainline_eval_1_1" nVehContrib="29" flow="1740.00" occupancy="11.69" speed="20.71" length="5.00" nVehEntered="29"/>
    <interval begin="300.00" end="360.00" id="mainline_eval_1_2" nVehContrib="37" flow="2220.00" occupancy="14.54" speed="21.22" length="5.00" nVehEntered="36"/>
    <interval begin="300.00" end="360.00" id="mainline_eval_2_0" nVehContrib="19" flow="1140.00" occupancy="8.44" speed="18.79" length="5.00" nVehEntered="19"/>
    <interval begin="300.00" end="360.00" id="mainline_eval_2_1" nVehContrib="29" flow="1740.00" occupancy="12.15" speed="19.91" length="5.00" nVehEntered="29"/>
    <interval begin="300.00" end="360.00" id="mainline_eval_2_2" nVehContrib="39" flow="2340.00" occupancy="16.14" speed="20.16" length="5.00" nVehEntered="39"/>
    <interval begin="300.00" end="360.00" id="mainline_eval_3_0" nVehContrib="3" flow="180.00" occupancy="3.17" speed="7.89" length="5.00" nVehEntered="3"/>
    <interval begin="300.00" end="360.00" id="mainline_eval_3_1" nVehContrib="25" flow="1500.00" occupancy="15.00" speed="15.36" length="5.00" nVehEntered="26"/>
    <interval begin="300.00" end="360.00" id="mainline_eval_3_2" nVehContrib="28" flow="1680.00" occupancy="12.69" speed="19.11" length="5.00" nVehEntered="29"/>
    <interval begin="300.00" end="360.00" id="mainline_eval_3_3" nVehContrib="39" flow="2340.00" occupancy="16.15" speed="20.19" length="5.00" nVehEntered="39"/>
    <interval begin="300.00" end="360.00" id="mainline_eval_4_0" nVehContrib="1" flow="60.00" occupancy="0.88" speed="9.49" length="5.00" nVehEntered="1"/>
    <interval begin="300.00" end="360.00" id="mainline_eval_4_1" nVehContrib="26" flow="1560.00" occupancy="13.94" speed="15.86" length="5.00" nVehEntered="26"/>
    <interval begin="300.00" end="360.00" id="mainline_eval_4_2" nVehContrib="30" flow="1800.00" occupancy="13.23" speed="19.04" length="5.00" nVehEntered="30"/>
    <interval begin="300.00" end="360.00" id="mainline_eval_4_3" nVehContrib="39" flow="2340.00" occupancy="15.97" speed="20.38" length="5.00" nVehEntered="39"/>
    <interval begin="300.00" end="360.00" id="mainline_eval_5_0" nVehContrib="24" flow="1440.00" occupancy="11.34" speed="17.79" length="5.00" nVehEntered="24"/>
    <interval begin="300.00" end="360.00" id="mainline_eval_5_1" nVehContrib="31" flow="1860.00" occupancy="13.79" speed="18.78" length="5.00" nVehEntered="31"/>
    <interval begin="300.00" end="360.00" id="mainline_eval_5_2" nVehContrib="39" flow="2340.00" occupancy="15.52" speed="20.94" length="5.00" nVehEntered="38"/>
    <interval begin="300.00" end="360.00" id="mainline_eval_6_0" nVehContrib="25" flow="1500.00" occupancy="11.99" speed="17.48" length="5.00" nVehEntered="24"/>
    <interval begin="300.00" end="360.00" id="mainline_eval_6_1" nVehContrib="30" flow="1800.00" occupancy="14.42" speed="17.49" length="5.00" nVehEntered="30"/>
    <interval begin="300.00" end="360.00" id="mainline_eval_6_2" nVehContrib="38" flow="2280.00" occupancy="15.12" speed="20.97" length="5.00" nVehEntered="38"/>
    <interval begin="360.00" end="420.00" id="mainline_eval_0_0" nVehContrib="19" flow="1140.00" occupancy="9.31" speed="17.19" length="5.00" nVehEntered="19"/>
    <interval begin="360.00" end="420.00" id="mainline_eval_0_1" nVehContrib="29" flow="1740.00" occupancy="11.84" speed="20.00" length="5.00" nVehEntered="28"/>
    <interval begin="360.00" end="420.00" id="mainline_eval_0_2" nVehContrib="32" flow="1920.00" occupancy="12.93" speed="20.67" length="5.00" nVehEntered="32"/>
    <interval begin="360.00" end="420.00" id="mainline_eval_1_0" nVehContrib="15" flow="900.00" occupancy="6.63" speed="18.99" length="5.00" nVehEntered="15"/>
    <interval begin="360.00" end="420.00" id="mainline_eval_1_1" nVehContrib="20" flow="1200.00" occupancy="8.34" speed="20.06" length="5.00" nVehEntered="20"/>
    <interval begin="360.00" end="420.00" id="mainline_eval_1_2" nVehContrib="27" flow="1620.00" occupancy="10.42" speed="21.69" length="5.00" nVehEntered="27"/>
    <interval begin="360.00" end="420.00" id="mainline_eval_2_0" nVehContrib="19" flow="1140.00" occupancy="8.13" speed="19.55" length="5.00" nVehEntered="19"/>
    <interval begin="360.00" end="420.00" id="mainline_eval_2_1" nVehContrib="27" flow="1620.00" occupancy="10.91" speed="20.68" length="5.00" nVehEntered="27"/>
    <interval begin="360.00" end="420.00" id="mainline_eval_2_2" nVehContrib="27" flow="1620.00" occupancy="10.59" speed="21.46" length="5.00" nVehEntered="27"/>
    <interval begin="360.00" end="420.00" id="mainline_eval_3_0" nVehContrib="5" flow="300.00" occupancy="9.38" speed="7.82" length="5.00" nVehEntered="5"/>
    <interval begin="360.00" end="420.00" id="mainline_eval_3_1" nVehContrib="22" flow="1320.00" occupancy="20.88" speed="11.06" length="5.00" nVehEntered="21"/>
    <interval begin="360.00" end="420.00" id="mainline_eval_3_2" nVehContrib="32" flow="1920.00" occupancy="16.05" speed="17.70" length="5.00" nVehEntered="31"/>
    <interval begin="360.00" end="420.00" id="mainline_eval_3_3" nVehContrib="37" flow="2220.00" occupancy="15.62" speed="19.88" length="5.00" nVehEntered="37"/>
    <interval begin="360.00" end="420.00" id="mainline_eval_4_0" nVehContrib="0" flow="0.00" occupancy="0.00" speed="-1.00" length="-1.00" nVehEntered="0"/>
    <interval begin="360.00" end="420.00" id="mainline_eval_4_1" nVehContrib="27" flow="1620.00" occupancy="17.66" speed="13.37" length="5.00" nVehEntered="27"/>
    <interval begin="360.00" end="420.00" id="mainline_eval_4_2" nVehContrib="29" flow="1740.00" occupancy="13.41" speed="18.37" length="5.00" nVehEntered="30"/>
    <interval begin="360.00" end="420.00" id="mainline_eval_4_3" nVehContrib="39" flow="2340.00" occupancy="17.66" speed="19.87" length="5.00" nVehEntered="39"/>
    <interval begin="360.00" end="420.00" id="mainline_eval_5_0" nVehContrib="25" flow="1500.00" occupancy="10.73" speed="19.46" length="5.00" nVehEntered="25"/>
    <interval begin="360.00" end="420.00" id="mainline_eval_5_1" nVehContrib="30" flow="1800.00" occupancy="12.36" speed="20.25" length="5.00" nVehEntered="30"/>
    <interval begin="360.00" end="420.00" id="mainline_eval_5_2" nVehContrib="40" flow="2400.00" occupancy="16.09" speed="20.93" length="5.00" nVehEntered="41"/>
    <interval begin="360.00" end="420.00" id="mainline_eval_6_0" nVehContrib="23" flow="1380.00" occupancy="10.01" speed="19.22" length="5.00" nVehEntered="23"/>
    <interval begin="360.00" end="420.00" id="mainline_eval_6_1" nVehContrib="30" flow="1800.00" occupancy="12.14" speed="20.61" length="5.00" nVehEntered="30"/>
    <interval begin="360.00" end="420.00" id="mainline_eval_6_2" nVehContrib="39" flow="2340.00" occupancy="15.68" speed="21.23" length="5.00" nVehEntered="40"/>
    <interval begin="420.00" end="480.00" id="mainline_eval_0_0" nVehContrib="14" flow="840.00" occupancy="6.70" speed="17.50" length="5.00" nVehEntered="14"/>
    <interval begin="420.00" end="480.00" id="mainline_eval_0_1" nVehContrib="31" flow="1860.00" occupancy="14.89" speed="17.52" length="5.00" nVehEntered="31"/>
    <interval begin="420.00" end="480.00" id="mainline_eval_0_2" nVehContrib="33" flow="1980.00" occupancy="13.48" speed="20.81" length="5.00" nVehEntered="34"/>
    <interval begin="420.00" end="480.00" id="mainline_eval_1_0" nVehContrib="15" flow="900.00" occupancy="7.31" speed="17.18" length="5.00" nVehEntered="15"/>
    <interval begin="420.00" end="480.00" id="mainline_eval_1_1" nVehContrib="27" flow="1620.00" occupancy="12.25" speed="18.75" length="5.00" nVehEntered="28"/>
    <interval begin="420.00" end="480.00" id="mainline_eval_1_2" nVehContrib="35" flow="2100.00" occupancy="14.32" speed="20.41" length="5.00" nVehEntered="35"/>
    <interval begin="420.00" end="480.00" id="mainline_eval_2_0" nVehContrib="13" flow="780.00" occupancy="6.16" speed="17.65" length="5.00" nVehEntered="13"/>
    <interval begin="420.00" end="480.00" id="mainline_eval_2_1" nVehContrib="29" flow="1740.00" occupancy="12.43" speed="19.50" length="5.00" nVehEntered="29"/>
    <interval begin="420.00" end="480.00" id="mainline_eval_2_2" nVehContrib="30" flow="1800.00" occupancy="12.70" speed="20.14" length="5.00" nVehEntered="31"/>
    <interval begin="420.00" end="480.00" id="mainline_eval_3_0" nVehContrib="4" flow="240.00" occupancy="2.79" speed="12.24" length="5.00" nVehEntered="4"/>
    <interval begin="420.00" end="480.00" id="mainline_eval_3_1" nVehContrib="22" flow="1320.00" occupancy="13.31" speed="14.45" length="5.00" nVehEntered="22"/>
    <interval begin="420.00" end="480.00" id="mainline_eval_3_2" nVehContrib="31" flow="1860.00" occupancy="13.36" speed="19.39" length="5.00" nVehEntered="31"/>
    <interval begin="420.00" end="480.00" id="mainline_eval_3_3" nVehContrib="28" flow="1680.00" occupancy="11.74" speed="19.92" length="5.00" nVehEntered="28"/>
    <interval begin="420.00" end="480.00" id="mainline_eval_4_0" nVehContrib="2" flow="120.00" occupancy="1.33" speed="12.60" length="5.00" nVehEntered="2"/>
    <interval begin="420.00" end="480.00" id="mainline_eval_4_1" nVehContrib="22" flow="1320.00" occupancy="11.84" speed="15.71" length="5.00" nVehEntered="22"/>
    <interval begin="420.00" end="480.00" id="mainline_eval_4_2" nVehContrib="32" flow="1920.00" occupancy="14.31" speed="18.79" length="5.00" nVehEntered="32"/>
    <interval begin="420.00" end="480.00" id="mainline_eval_4_3" nVehContrib="28" flow="1680.00" occupancy="11.72" speed="19.97" length="5.00" nVehEntered="28"/>
    <interval begin="420.00" end="480.00" id="mainline_eval_5_0" nVehContrib="24" flow="1440.00" occupancy="11.18" speed="17.93" length="5.00" nVehEntered="24"/>
    <interval begin="420.00" end="480.00" id="mainline_eval_5_1" nVehContrib="29" flow="1740.00" occupancy="12.20" speed="19.85" length="5.00" nVehEntered="29"/>
    <interval begin="420.00" end="480.00" id="mainline_eval_5_2" nVehContrib="29" flow="1740.00" occupancy="11.65" speed="20.58" length="5.00" nVehEntered="28"/>