<?xml version="1.0" encoding="UTF-8"?>

<!-- generated on 02/21/19 16:20:46 by Eclipse SUMO Version 1.0.1
<configuration xmlns:xsi="http://www.w3.org/2001/XMLSchema-instance" xsi:noNamespaceSchemaLocation="http://sumo.dlr.de/xsd/sumoConfiguration.xsd">

    <input>
        <net-file value="./project/ramp.net.xml"/>
        <route-files value="./project/ramp.rou.xml"/>
        <additional-files value="./project/ramp.add.xml"/>
    </input>

    <time>
        <begin value="0"/>
    </time>

    <report>
        <verbose value="true"/>
        <no-step-log value="true"/>
    </report>

    <traci_server>
        <remote-port value="56102"/>
    </traci_server>

    <random_number>
        <seed value="921298845"/>
    </random_number>

    <gui_only>
        <quit-on-end value="true"/>
        <start value="true"/>
    </gui_only>

</configuration>
-->

<detector xmlns:xsi="http://www.w3.org/2001/XMLSchema-instance" xsi:noNamespaceSchemaLocation="http://sumo.dlr.de/xsd/det_e1_file.xsd">
    <interval begin="0.00" end="60.00" id="mainline_eval_0_0" nVehContrib="0" flow="0.00" occupancy="0.00" speed="-1.00" length="-1.00" nVehEntered="0"/>
    <interval begin="0.00" end="60.00" id="mainline_eval_0_1" nVehContrib="0" flow="0.00" occupancy="0.00" speed="-1.00" length="-1.00" nVehEntered="0"/>
    <interval begin="0.00" end="60.00" id="mainline_eval_0_2" nVehContrib="0" flow="0.00" occupancy="0.00" speed="-1.00" length="-1.00" nVehEntered="0"/>
    <interval begin="0.00" end="60.00" id="mainline_eval_1_0" nVehContrib="0" flow="0.00" occupancy="0.00" speed="-1.00" length="-1.00" nVehEntered="0"/>
    <interval begin="0.00" end="60.00" id="mainline_eval_1_1" nVehContrib="0" flow="0.00" occupancy="0.00" speed="-1.00" length="-1.00" nVehEntered="0"/>
    <interval begin="0.00" end="60.00" id="mainline_eval_1_2" nVehContrib="0" flow="0.00" occupancy="0.00" speed="-1.00" length="-1.00" nVehEntered="0"/>
    <interval begin="0.00" end="60.00" id="mainline_eval_2_0" nVehContrib="0" flow="0.00" occupancy="0.00" speed="-1.00" length="-1.00" nVehEntered="0"/>
    <interval begin="0.00" end="60.00" id="mainline_eval_2_1" nVehContrib="0" flow="0.00" occupancy="0.00" speed="-1.00" length="-1.00" nVehEntered="0"/>
    <interval begin="0.00" end="60.00" id="mainline_eval_2_2" nVehContrib="0" flow="0.00" occupancy="0.00" speed="-1.00" length="-1.00" nVehEntered="0"/>
    <interval begin="0.00" end="60.00" id="mainline_eval_3_0" nVehContrib="0" flow="0.00" occupancy="0.00" speed="-1.00" length="-1.00" nVehEntered="0"/>
    <interval begin="0.00" end="60.00" id="mainline_eval_3_1" nVehContrib="0" flow="0.00" occupancy="0.00" speed="-1.00" length="-1.00" nVehEntered="0"/>
    <interval begin="0.00" end="60.00" id="mainline_eval_3_2" nVehContrib="0" flow="0.00" occupancy="0.00" speed="-1.00" length="-1.00" nVehEntered="0"/>
    <interval begin="0.00" end="60.00" id="mainline_eval_3_3" nVehContrib="0" flow="0.00" occupancy="0.00" speed="-1.00" length="-1.00" nVehEntered="0"/>
    <interval begin="0.00" end="60.00" id="mainline_eval_4_0" nVehContrib="0" flow="0.00" occupancy="0.00" speed="-1.00" length="-1.00" nVehEntered="0"/>
    <interval begin="0.00" end="60.00" id="mainline_eval_4_1" nVehContrib="0" flow="0.00" occupancy="0.00" speed="-1.00" length="-1.00" nVehEntered="0"/>
    <interval begin="0.00" end="60.00" id="mainline_eval_4_2" nVehContrib="0" flow="0.00" occupancy="0.00" speed="-1.00" length="-1.00" nVehEntered="0"/>
    <interval begin="0.00" end="60.00" id="mainline_eval_4_3" nVehContrib="0" flow="0.00" occupancy="0.00" speed="-1.00" length="-1.00" nVehEntered="0"/>
    <interval begin="0.00" end="60.00" id="mainline_eval_5_0" nVehContrib="0" flow="0.00" occupancy="0.00" speed="-1.00" length="-1.00" nVehEntered="0"/>
    <interval begin="0.00" end="60.00" id="mainline_eval_5_1" nVehContrib="0" flow="0.00" occupancy="0.00" speed="-1.00" length="-1.00" nVehEntered="0"/>
    <interval begin="0.00" end="60.00" id="mainline_eval_5_2" nVehContrib="0" flow="0.00" occupancy="0.00" speed="-1.00" length="-1.00" nVehEntered="0"/>
    <interval begin="0.00" end="60.00" id="mainline_eval_6_0" nVehContrib="0" flow="0.00" occupancy="0.00" speed="-1.00" length="-1.00" nVehEntered="0"/>
    <interval begin="0.00" end="60.00" id="mainline_eval_6_1" nVehContrib="0" flow="0.00" occupancy="0.00" speed="-1.00" length="-1.00" nVehEntered="0"/>
    <interval begin="0.00" end="60.00" id="mainline_eval_6_2" nVehContrib="0" flow="0.00" occupancy="0.00" speed="-1.00" length="-1.00" nVehEntered="0"/>
    <interval begin="60.00" end="120.00" id="mainline_eval_0_0" nVehContrib="16" flow="960.00" occupancy="7.07" speed="19.02" length="5.00" nVehEntered="16"/>
    <interval begin="60.00" end="120.00" id="mainline_eval_0_1" nVehContrib="20" flow="1200.00" occupancy="7.77" speed="21.54" length="5.00" nVehEntered="20"/>
    <interval begin="60.00" end="120.00" id="mainline_eval_0_2" nVehContrib="18" flow="1080.00" occupancy="7.01" speed="22.23" length="5.00" nVehEntered="19"/>
    <interval begin="60.00" end="120.00" id="mainline_eval_1_0" nVehContrib="9" flow="540.00" occupancy="3.69" speed="20.44" length="5.00" nVehEntered="9"/>
    <interval begin="60.00" end="120.00" id="mainline_eval_1_1" nVehContrib="10" flow="600.00" occupancy="3.80" speed="21.97" length="5.00" nVehEntered="10"/>
    <interval begin="60.00" end="120.00" id="mainline_eval_1_2" nVehContrib="9" flow="540.00" occupancy="3.34" speed="22.50" length="5.00" nVehEntered="9"/>
    <interval begin="60.00" end="120.00" id="mainline_eval_2_0" nVehContrib="4" flow="240.00" occupancy="1.48" speed="22.66" length="5.00" nVehEntered="4"/>
    <interval begin="60.00" end="120.00" id="mainline_eval_2_1" nVehContrib="3" flow="180.00" occupancy="1.12" speed="22.47" length="5.00" nVehEntered="3"/>
    <interval begin="60.00" end="120.00" id="mainline_eval_2_2" nVehContrib="2" flow="120.00" occupancy="0.72" speed="23.28" length="5.00" nVehEntered="2"/>
    <interval begin="60.00" end="120.00" id="mainline_eval_3_0" nVehContrib="0" flow="0.00" occupancy="0.00" speed="-1.00" length="-1.00" nVehEntered="0"/>
    <interval begin="60.00" end="120.00" id="mainline_eval_3_1" nVehContrib="2" flow="120.00" occupancy="0.72" speed="23.28" length="5.00" nVehEntered="2"/>
    <interval begin="60.00" end="120.00" id="mainline_eval_3_2" nVehContrib="1" flow="60.00" occupancy="0.34" speed="24.46" length="5.00" nVehEntered="1"/>
    <interval begin="60.00" end="120.00" id="mainline_eval_3_3" nVehContrib="1" flow="60.00" occupancy="0.35" speed="23.94" length="5.00" nVehEntered="1"/>
    <interval begin="60.00" end="120.00" id="mainline_eval_4_0" nVehContrib="0" flow="0.00" occupancy="0.00" speed="-1.00" length="-1.00" nVehEntered="0"/>
    <interval begin="60.00" end="120.00" id="mainline_eval_4_1" nVehContrib="2" flow="120.00" occupancy="0.72" speed="23.14" length="5.00" nVehEntered="2"/>
    <interval begin="60.00" end="120.00" id="mainline_eval_4_2" nVehContrib="1" flow="60.00" occupancy="0.34" speed="24.28" length="5.00" nVehEntered="1"/>
    <interval begin="60.00" end="120.00" id="mainline_eval_4_3" nVehContrib="1" flow="60.00" occupancy="0.34" speed="24.46" length="5.00" nVehEntered="1"/>
    <interval begin="60.00" end="120.00" id="mainline_eval_5_0" nVehContrib="1" flow="60.00" occupancy="0.36" speed="22.87" length="5.00" nVehEntered="1"/>
    <interval begin="60.00" end="120.00" id="mainline_eval_5_1" nVehContrib="1" flow="60.00" occupancy="0.34" speed="24.26" length="5.00" nVehEntered="1"/>
    <interval begin="60.00" end="120.00" id="mainline_eval_5_2" nVehContrib="1" flow="60.00" occupancy="0.34" speed="24.26" length="5.00" nVehEntered="1"/>
    <interval begin="60.00" end="120.00" id="mainline_eval_6_0" nVehContrib="0" flow="0.00" occupancy="0.00" speed="-1.00" length="-1.00" nVehEntered="0"/>
    <interval begin="60.00" end="120.00" id="mainline_eval_6_1" nVehContrib="0" flow="0.00" occupancy="0.01" speed="-1.00" length="-1.00" nVehEntered="1"/>
    <interval begin="60.00" end="120.00" id="mainline_eval_6_2" nVehContrib="1" flow="60.00" occupancy="0.34" speed="24.51" length="5.00" nVehEntered="1"/>
    <interval begin="120.00" end="180.00" id="mainline_eval_0_0" nVehContrib="17" flow="1020.00" occupancy="7.10" speed="20.03" length="5.00" nVehEntered="17"/>
    <interval begin="120.00" end="180.00" id="mainline_eval_0_1" nVehContrib="25" flow="1500.00" occupancy="9.87" speed="21.20" length="5.00" nVehEntered="25"/>
    <interval begin="120.00" end="180.00" id="mainline_eval_0_2" nVehContrib="30" flow="1800.00" occupancy="11.29" speed="22.20" length="5.00" nVehEntered="30"/>
    <interval begin="120.00" end="180.00" id="mainline_eval_1_0" nVehContrib="20" flow="1200.00" occupancy="8.84" speed="18.99" length="5.00" nVehEntered="20"/>
    <interval begin="120.00" end="180.00" id="mainline_eval_1_1" nVehContrib="29" flow="1740.00" occupancy="11.44" speed="21.15" length="5.00" nVehEntered="29"/>
    <interval begin="120.00" end="180.00" id="mainline_eval_1_2" nVehContrib="35" flow="2100.00" occupancy="13.40" speed="21.79" length="5.00" nVehEntered="35"/>
    <interval begin="120.00" end="180.00" id="mainline_eval_2_0" nVehContrib="20" flow="1200.00" occupancy="8.78" speed="19.12" length="5.00" nVehEntered="21"/>
    <interval begin="120.00" end="180.00" id="mainline_eval_2_1" nVehContrib="26" flow="1560.00" occupancy="11.90" speed="20.10" length="5.00" nVehEntered="26"/>
    <interval begin="120.00" end="180.00" id="mainline_eval_2_2" nVehContrib="29" flow="1740.00" occupancy="11.03" speed="21.92" length="5.00" nVehEntered="29"/>
    <interval begin="120.00" end="180.00" id="mainline_eval_3_0" nVehContrib="0" flow="0.00" occupancy="0.00" speed="-1.00" length="-1.00" nVehEntered="0"/>
    <interval begin="120.00" end="180.00" id="mainline_eval_3_1" nVehContrib="22" flow="1320.00" occupancy="11.02" speed="17.84" length="5.00" nVehEntered="23"/>
    <interval begin="120.00" end="180.00" id="mainline_eval_3_2" nVehContrib="23" flow="1380.00" occupancy="9.39" speed="20.51" length="5.00" nVehEntered="24"/>
    <interval begin="120.00" end="180.00" id="mainline_eval_3_3" nVehContrib="26" flow="1560.00" occupancy="11.58" speed="21.00" length="5.00" nVehEntered="26"/>
    <interval begin="120.00" end="180.00" id="mainline_eval_4_0" nVehContrib="0" flow="0.00" occupancy="0.00" speed="-1.00" length="-1.00" nVehEntered="0"/>
    <interval begin="120.00" end="180.00" id="mainline_eval_4_1" nVehContrib="21" flow="1260.00" occupancy="9.78" speed="18.16" length="5.00" nVehEntered="21"/>
    <interval begin="120.00" end="180.00" id="mainline_eval_4_2" nVehContrib="21" flow="1260.00" occupancy="8.48" speed="20.73" length="5.00" nVehEntered="21"/>
    <interval begin="120.00" end="180.00" id="mainline_eval_4_3" nVehContrib="24" flow="1440.00" occupancy="9.19" speed="21.79" length="5.00" nVehEntered="24"/>
    <interval begin="120.00" end="180.00" id="mainline_eval_5_0" nVehContrib="16" flow="960.00" occupancy="6.60" speed="20.30" length="5.00" nVehEntered="16"/>
    <interval begin="120.00" end="180.00" id="mainline_eval_5_1" nVehContrib="15" flow="900.00" occupancy="5.89" speed="21.24" length="5.00" nVehEntered="15"/>
    <interval begin="120.00" end="180.00" id="mainline_eval_5_2" nVehContrib="18" flow="1080.00" occupancy="6.81" speed="22.04" length="5.00" nVehEntered="18"/>
    <interval begin="120.00" end="180.00" id="mainline_eval_6_0" nVehContrib="16" flow="960.00" occupancy="6.56" speed="20.43" length="5.00" nVehEntered="16"/>
    <interval begin="120.00" end="180.00" id="mainline_eval_6_1" nVehContrib="14" flow="840.00" occupancy="5.53" speed="21.64" length="5.00" nVehEntered="14"/>
    <interval begin="120.00" end="180.00" id="mainline_eval_6_2" nVehContrib="15" flow="900.00" occupancy="5.61" speed="22.28" length="5.00" nVehEntered="15"/>
    <interval begin="180.00" end="240.00" id="mainline_eval_0_0" nVehContrib="16" flow="960.00" occupancy="7.65" speed="17.79" length="5.00" nVehEntered="16"/>
    <interval begin="180.00" end="240.00" id="mainline_eval_0_1" nVehContrib="29" flow="1740.00" occupancy="12.40" speed="19.57" length="5.00" nVehEntered="29"/>
    <interval begin="180.00" end="240.00" id="mainline_eval_0_2" nVehContrib="35" flow="2100.00" occupancy="12.97" speed="22.08" length="5.00" nVehEntered="34"/>
    <interval begin="180.00" end="240.00" id="mainline_eval_1_0" nVehContrib="15" flow="900.00" occupancy="7.06" speed="18.16" length="5.00" nVehEntered="15"/>
    <interval begin="180.00" end="240.00" id="mainline_eval_1_1" nVehContrib="24" flow="1440.00" occupancy="10.04" speed="19.98" length="5.00" nVehEntered="24"/>
    <interval begin="180.00" end="240.00" id="mainline_eval_1_2" nVehContrib="35" flow="2100.00" occupancy="13.26" speed="22.06" length="5.00" nVehEntered="35"/>
    <interval begin="180.00" end="240.00" id="mainline_eval_2_0" nVehContrib="14" flow="840.00" occupancy="6.17" speed="19.83" length="5.00" nVehEntered="15"/>
    <interval begin="180.00" end="240.00" id="mainline_eval_2_1" nVehContrib="22" flow="1320.00" occupancy="8.80" speed="20.86" length="5.00" nVehEntered="22"/>
    <interval begin="180.00" end="240.00" id="mainline_eval_2_2" nVehContrib="32" flow="1920.00" occupancy="12.05" speed="22.17" length="5.00" nVehEntered="32"/>
    <interval begin="180.00" end="240.00" id="mainline_eval_3_0" nVehContrib="5" flow="300.00" occupancy="3.98" speed="10.80" length="5.00" nVehEntered="5"/>
    <interval begin="180.00" end="240.00" id="mainline_eval_3_1" nVehContrib="22" flow="1320.00" occupancy="13.85" speed="13.82" length="5.00" nVehEntered="21"/>
    <interval begin="180.00" end="240.00" id="mainline_eval_3_2" nVehContrib="29" flow="1740.00" occupancy="12.33" speed="19.80" length="5.00" nVehEntered="29"/>
    <interval begin="180.00" end="240.00" id="mainline_eval_3_3" nVehContrib="32" flow="1920.00" occupancy="12.18" speed="21.91" length="5.00" nVehEntered="32"/>
    <interval begin="180.00" end="240.00" id="mainline_eval_4_0" nVehContrib="1" flow="60.00" occupancy="0.75" speed="11.08" length="5.00" nVehEntered="1"/>
    <interval begin="180.00" end="240.00" id="mainline_eval_4_1" nVehContrib="23" flow="1380.00" occupancy="12.57" speed="15.68" length="5.00" nVehEntered="23"/>
    <interval begin="180.00" end="240.00" id="mainline_eval_4_2" nVehContrib="30" flow="1800.00" occupancy="12.66" speed="19.92" length="5.00" nVehEntered="30"/>
    <interval begin="180.00" end="240.00" id="mainline_eval_4_3" nVehContrib="32" flow="1920.00" occupancy="12.20" speed="21.87" length="5.00" nVehEntered="32"/>
    <interval begin="180.00" end="240.00" id="mainline_eval_5_0" nVehContrib="25" flow="1500.00" occupancy="11.29" speed="18.53" length="5.00" nVehEntered="25"/>
    <interval begin="180.00" end="240.00" id="mainline_eval_5_1" nVehContrib="33" flow="1980.00" occupancy="13.80" speed="19.98" length="5.00" nVehEntered="33"/>
    <interval begin="180.00" end="240.00" id="mainline_eval_5_2" nVehContrib="33" flow="1980.00" occupancy="12.65" speed="22.05" length="5.00" nVehEntered="34"/>
    <interval begin="180.00" end="240.00" id="mainline_eval_6_0" nVehContrib="26" flow="1560.00" occupancy="11.84" speed="18.36" length="5.00" nVehEntered="26"/>
    <interval begin="180.00" end="240.00" id="mainline_eval_6_1" nVehContrib="35" flow="2100.00" occupancy="14.66" speed="19.80" length="5.00" nVehEntered="34"/>
    <interval begin="180.00" end="240.00" id="mainline_eval_6_2" nVehContrib="33" flow="1980.00" occupancy="12.40" speed="22.20" length="5.00" nVehEntered="33"/>
    <interval begin="240.00" end="300.00" id="mainline_eval_0_0" nVehContrib="13" flow="780.00" occupancy="5.95" speed="18.29" length="5.00" nVehEntered="13"/>
    <interval begin="240.00" end="300.00" id="mainline_eval_0_1" nVehContrib="23" flow="1380.00" occupancy="10.23" speed="18.85" length="5.00" nVehEntered="23"/>
    <interval begin="240.00" end="300.00" id="mainline_eval_0_2" nVehContrib="36" flow="2160.00" occupancy="14.35" speed="20.95" length="5.00" nVehEntered="36"/>
    <interval begin="240.00" end="300.00" id="mainline_eval_1_0" nVehContrib="11" flow="660.00" occupancy="4.85" speed="18.96" length="5.00" nVehEntered="12"/>
    <interval begin="240.00" end="300.00" id="mainline_eval_1_1" nVehContrib="20" flow="1200.00" occupancy="10.07" speed="19.09" length="5.00" nVehEntered="20"/>
    <interval begin="240.00" end="300.00" id="mainline_eval_1_2" nVehContrib="33" flow="1980.00" occupancy="12.99" speed="21.22" length="5.00" nVehEntered="33"/>
    <interval begin="240.00" end="300.00" id="mainline_eval_2_0" nVehContrib="18" flow="1080.00" occupancy="8.27" speed="17.93" length="5.00" nVehEntered="17"/>
    <interval begin="240.00" end="300.00" id="mainline_eval_2_1" nVehContrib="22" flow="1320.00" occupancy="9.26" speed="19.84" length="5.00" nVehEntered="22"/>
    <interval begin="240.00" end="300.00" id="mainline_eval_2_2" nVehContrib="36" flow="2160.00" occupancy="13.54" speed="22.25" length="5.00" nVehEntered="36"/>
    <interval begin="240.00" end="300.00" id="mainline_eval_3_0" nVehContrib="7" flow="420.00" occupancy="5.35" speed="11.07" length="5.00" nVehEntered="8"/>
    <interval begin="240.00" end="300.00" id="mainline_eval_3_1" nVehContrib="25" flow="1500.00" occupancy="18.43" speed="13.46" length="5.00" nVehEntered="27"/>
    <interval begin="240.00" end="300.00" id="mainline_eval_3_2" nVehContrib="26" flow="1560.00" occupancy="13.73" speed="18.03" length="5.00" nVehEntered="26"/>
    <interval begin="240.00" end="300.00" id="mainline_eval_3_3" nVehContrib="38" flow="2280.00" occupancy="14.45" speed="22.02" length="5.00" nVehEntered="38"/>
    <interval begin="240.00" end="300.00" id="mainline_eval_4_0" nVehContrib="0" flow="0.00" occupancy="0.00" speed="-1.00" length="-1.00" nVehEntered="0"/>
    <interval begin="240.00" end="300.00" id="mainline_eval_4_1" nVehContrib="31" flow="1860.00" occupancy="17.25" speed="15.33" length="5.00" nVehEntered="31"/>
    <interval begin="240.00" end="300.00" id="mainline_eval_4_2" nVehContrib="31" flow="1860.00" occupancy="14.22" speed="18.40" length="5.00" nVehEntered="31"/>
    <interval begin="240.00" end="300.00" id="mainline_eval_4_3" nVehContrib="39" flow="2340.00" occupancy="14.92" speed="21.83" length="5.00" nVehEntered="39"/>
    <interval begin="240.00" end="300.00" id="mainline_eval_5_0" nVehContrib="26" flow="1560.00" occupancy="12.45" speed="17.59" length="5.00" nVehEntered="26"/>
    <interval begin="240.00" end="300.00" id="mainline_eval_5_1" nVehContrib="31" flow="1860.00" occupancy="13.78" speed="18.85" length="5.00" nVehEntered="31"/>
    <interval begin="240.00" end="300.00" id="mainline_eval_5_2" nVehContrib="41" flow="2460.00" occupancy="15.81" speed="21.43" length="5.00" nVehEntered="40"/>
    <interval begin="240.00" end="300.00" id="mainline_eval_6_0" nVehContrib="25" flow="1500.00" occupancy="11.94" speed="17.60" length="5.00" nVehEntered="25"/>
    <interval begin="240.00" end="300.00" id="mainline_eval_6_1" nVehContrib="29" flow="1740.00" occupancy="12.42" speed="19.54" length="5.00" nVehEntered="29"/>
    <interval begin="240.00" end="300.00" id="mainline_eval_6_2" nVehContrib="39" flow="2340.00" occupancy="15.06" speed="21.60" length="5.00" nVehEntered="39"/>
    <interval begin="300.00" end="360.00" id="mainline_eval_0_0" nVehContrib="20" flow="1200.00" occupancy="9.42" speed="17.76" length="5.00" nVehEntered="20"/>
    <interval begin="300.00" end="360.00" id="mainline_eval_0_1" nVehContrib="31" flow="1860.00" occupancy="14.29" speed="18.16" length="5.00" nVehEntered="31"/>
    <interval begin="300.00" end="360.00" id="mainline_eval_0_2" nVehContrib="34" flow="2040.00" occupancy="14.30" speed="19.84" length="5.00" nVehEntered="34"/>
    <interval begin="300.00" end="360.00" id="mainline_eval_1_0" nVehContrib="21" flow="1260.00" occupancy="9.58" speed="18.32" length="5.00" nVehEntered="21"/>
    <interval begin="300.00" end="360.00" id="mainline_eval_1_1" nVehContrib="28" flow="1680.00" occupancy="12.85" speed="18.69" length="5.00" nVehEntered="29"/>
    <interval begin="300.00" end="360.00" id="mainline_eval_1_2" nVehContrib="34" flow="2040.00" occupancy="13.93" speed="20.39" length="5.00" nVehEntered="34"/>
    <interval begin="300.00" end="360.00" id="mainline_eval_2_0" nVehContrib="18" flow="1080.00" occupancy="8.15" speed="18.44" length="5.00" nVehEntered="18"/>
    <interval begin="300.00" end="360.00" id="mainline_eval_2_1" nVehContrib="22" flow="1320.00" occupancy="9.70" speed="18.93" length="5.00" nVehEntered="22"/>
    <interval begin="300.00" end="360.00" id="mainline_eval_2_2" nVehContrib="33" flow="1980.00" occupancy="13.28" speed="20.74" length="5.00" nVehEntered="33"/>
    <interval begin="300.00" end="360.00" id="mainline_eval_3_0" nVehContrib="8" flow="480.00" occupancy="6.31" speed="10.69" length="5.00" nVehEntered="9"/>
    <interval begin="300.00" end="360.00" id="mainline_eval_3_1" nVehContrib="27" flow="1620.00" occupancy="21.36" speed="11.74" length="5.00" nVehEntered="28"/>
    <interval begin="300.00" end="360.00" id="mainline_eval_3_2" nVehContrib="28" flow="1680.00" occupancy="15.00" speed="17.59" length="5.00" nVehEntered="28"/>
    <interval begin="300.00" end="360.00" id="mainline_eval_3_3" nVehContrib="32" flow="1920.00" occupancy="13.16" speed="20.35" length="5.00" nVehEntered="32"/>
    <interval begin="300.00" end="360.00" id="mainline_eval_4_0" nVehContrib="1" flow="60.00" occupancy="0.71" speed="11.73" length="5.00" nVehEntered="1"/>
    <interval begin="300.00" end="360.00" id="mainline_eval_4_1" nVehContrib="33" flow="1980.00" occupancy="20.63" speed="13.87" length="5.00" nVehEntered="33"/>
    <interval begin="300.00" end="360.00" id="mainline_eval_4_2" nVehContrib="24" flow="1440.00" occupancy="11.09" speed="18.21" length="5.00" nVehEntered="25"/>
    <interval begin="300.00" end="360.00" id="mainline_eval_4_3" nVehContrib="35" flow="2100.00" occupancy="16.01" speed="19.46" length="5.00" nVehEntered="35"/>
    <interval begin="300.00" end="360.00" id="mainline_eval_5_0" nVehContrib="26" flow="1560.00" occupancy="12.43" speed="17.92" length="5.00" nVehEntered="27"/>
    <interval begin="300.00" end="360.00" id="mainline_eval_5_1" nVehContrib="28" flow="1680.00" occupancy="12.71" speed="18.55" length="5.00" nVehEntered="29"/>
    <interval begin="300.00" end="360.00" id="mainline_eval_5_2" nVehContrib="36" flow="2160.00" occupancy="15.02" speed="20.03" length="5.00" nVehEntered="36"/>
    <interval begin="300.00" end="360.00" id="mainline_eval_6_0" nVehContrib="25" flow="1500.00" occupancy="11.36" speed="18.42" length="5.00" nVehEntered="25"/>
    <interval begin="300.00" end="360.00" id="mainline_eval_6_1" nVehContrib="28" flow="1680.00" occupancy="12.28" speed="19.05" length="5.00" nVehEntered="28"/>
    <interval begin="300.00" end="360.00" id="mainline_eval_6_2" nVehContrib="35" flow="2100.00" occupancy="14.69" speed="20.35" length="5.00" nVehEntered="36"/>
    <interval begin="360.00" end="420.00" id="mainline_eval_0_0" nVehContrib="18" flow="1080.00" occupancy="8.19" speed="18.41" length="5.00" nVehEntered="18"/>
    <interval begin="360.00" end="420.00" id="mainline_eval_0_1" nVehContrib="26" flow="1560.00" occupancy="11.21" speed="19.44" length="5.00" nVehEntered="26"/>
    <interval begin="360.00" end="420.00" id="mainline_eval_0_2" nVehContrib="29" flow="1740.00" occupancy="11.40" speed="21.22" length="5.00" nVehEntered="29"/>
    <interval begin="360.00" end="420.00" id="mainline_eval_1_0" nVehContrib="20" flow="1200.00" occupancy="8.95" speed="18.73" length="5.00" nVehEntered="20"/>
    <interval begin="360.00" end="420.00" id="mainline_eval_1_1" nVehContrib="27" flow="1620.00" occupancy="12.55" speed="19.30" length="5.00" nVehEntered="26"/>
    <interval begin="360.00" end="420.00" id="mainline_eval_1_2" nVehContrib="31" flow="1860.00" occupancy="12.41" speed="20.85" length="5.00" nVehEntered="32"/>
    <interval begin="360.00" end="420.00" id="mainline_eval_2_0" nVehContrib="26" flow="1560.00" occupancy="12.31" speed="17.69" length="5.00" nVehEntered="26"/>
    <interval begin="360.00" end="420.00" id="mainline_eval_2_1" nVehContrib="29" flow="1740.00" occupancy="12.53" speed="19.45" length="5.00" nVehEntered="29"/>
    <interval begin="360.00" end="420.00" id="mainline_eval_2_2" nVehContrib="38" flow="2280.00" occupancy="15.52" speed="20.43" length="5.00" nVehEntered="38"/>
    <interval begin="360.00" end="420.00" id="mainline_eval_3_0" nVehContrib="6" flow="360.00" occupancy="4.56" speed="11.67" length="5.00" nVehEntered="7"/>
    <interval begin="360.00" end="420.00" id="mainline_eval_3_1" nVehContrib="30" flow="1800.00" occupancy="18.57" speed="13.73" length="5.00" nVehEntered="29"/>
    <interval begin="360.00" end="420.00" id="mainline_eval_3_2" nVehContrib="30" flow="1800.00" occupancy="13.98" speed="18.16" length="5.00" nVehEntered="30"/>
    <interval begin="360.00" end="420.00" id="mainline_eval_3_3" nVehContrib="38" flow="2280.00" occupancy="15.66" speed="20.24" length="5.00" nVehEntered="38"/>
    <interval begin="360.00" end="420.00" id="mainline_eval_4_0" nVehContrib="2" flow="120.00" occupancy="2.05" speed="8.54" length="5.00" nVehEntered="2"/>
    <interval begin="360.00" end="420.00" id="mainline_eval_4_1" nVehContrib="28" flow="1680.00" occupancy="16.43" speed="14.72" length="5.00" nVehEntered="28"/>
    <interval begin="360.00" end="420.00" id="mainline_eval_4_2" nVehContrib="34" flow="2040.00" occupancy="17.49" speed="17.01" length="5.00" nVehEntered="36"/>
    <interval begin="360.00" end="420.00" id="mainline_eval_4_3" nVehContrib="38" flow="2280.00" occupancy="17.21" speed="19.94" length="5.00" nVehEntered="39"/>
    <interval begin="360.00" end="420.00" id="mainline_eval_5_0" nVehContrib="32" flow="1920.00" occupancy="14.79" speed="18.02" length="5.00" nVehEntered="32"/>
    <interval begin="360.00" end="420.00" id="mainline_eval_5_1" nVehContrib="32" flow="1920.00" occupancy="14.35" speed="18.54" length="5.00" nVehEntered="31"/>
    <interval begin="360.00" end="420.00" id="mainline_eval_5_2" nVehContrib="38" flow="2280.00" occupancy="15.66" speed="20.25" length="5.00" nVehEntered="38"/>
    <interval begin="360.00" end="420.00" id="mainline_eval_6_0" nVehContrib="32" flow="1920.00" occupancy="14.65" speed="18.26" length="5.00" nVehEntered="33"/>
    <interval begin="360.00" end="420.00" id="mainline_eval_6_1" nVehContrib="32" flow="1920.00" occupancy="13.82" speed="19.36" length="5.00" nVehEntered="32"/>
    <interval begin="360.00" end="420.00" id="mainline_eval_6_2" nVehContrib="40" flow="2400.00" occupancy="16.66" speed="20.15" length="5.00" nVehEntered="40"/>
    <interval begin="420.00" end="480.00" id="mainline_eval_0_0" nVehContrib="17" flow="1020.00" occupancy="7.82" speed="18.16" length="5.00" nVehEntered="17"/>
    <interval begin="420.00" end="480.00" id="mainline_eval_0_1" nVehContrib="29" flow="1740.00" occupancy="12.59" speed="19.28" length="5.00" nVehEntered="29"/>
    <interval begin="420.00" end="480.00" id="mainline_eval_0_2" nVehContrib="30" flow="1800.00" occupancy="11.97" speed="20.93" length="5.00" nVehEntered="30"/>
    <interval begin="420.00" end="480.00" id="mainline_eval_1_0" nVehContrib="17" flow="1020.00" occupancy="8.12" speed="17.49" length="5.00" nVehEntered="17"/>
    <interval begin="420.00" end="480.00" id="mainline_eval_1_1" nVehContrib="24" flow="1440.00" occupancy="10.71" speed="18.79" length="5.00" nVehEntered="24"/>
    <interval begin="420.00" end="480.00" id="mainline_eval_1_2" nVehContrib="33" flow="1980.00" occupancy="13.29" speed="20.77" length="5.00" nVehEntered="34"/>
    <interval begin="420.00" end="480.00" id="mainline_eval_2_0" nVehContrib="18" flow="1080.00" occupancy="8.43" speed="18.01" length="5.00" nVehEntered="18"/>
    <interval begin="420.00" end="480.00" id="mainline_eval_2_1" nVehContrib="23" flow="1380.00" occupancy="9.89" speed="19.58" length="5.00" nVehEntered="23"/>
    <interval begin="420.00" end="480.00" id="mainline_eval_2_2" nVehContrib="28" flow="1680.00" occupancy="10.88" speed="21.48" length="5.00" nVehEntered="28"/>
    <interval begin="420.00" end="480.00" id="mainline_eval_3_0" nVehContrib="9" flow="540.00" occupancy="10.01" speed="9.26" length="5.00" nVehEntered="8"/>
    <interval begin="420.00" end="480.00" id="mainline_eval_3_1" nVehContrib="22" flow="1320.00" occupancy="22.97" speed="10.85" length="5.00" nVehEntered="24"/>
    <interval begin="420.00" end="480.00" id="mainline_eval_3_2" nVehContrib="22" flow="1320.00" occupancy="20.07" speed="14.03" length="5.00" nVehEntered="22"/>
    <interval begin="420.00" end="480.00" id="mainline_eval_3_3" nVehContrib="37" flow="2220.00" occupancy="14.96" speed="20.71" length="5.00" nVehEntered="37"/>
    <interval begin="420.00" end="480.00" id="mainline_eval_4_0" nVehContrib="2" flow="120.00" occupancy="1.16" speed="14.89" length="5.00" nVehEntered="2"/>
    <interval begin="420.00" end="480.00" id="mainline_eval_4_1" nVehContrib="27" flow="1620.00" occupancy="19.69" speed="12.70" length="5.00" nVehEntered="27"/>
    <interval begin="420.00" end="480.00" id="mainline_eval_4_2" nVehContrib="24" flow="1440.00" occupancy="13.96" speed="14.80" length="5.00" nVehEntered="23"/>
    <interval begin="420.00" end="480.00" id="mainline_eval_4_3" nVehContrib="39" flow="2340.00" occupancy="15.61" speed="20.86" length="5.00" nVehEntered="38"/>
    <interval begin="420.00" end="480.00" id="mainline_eval_5_0" nVehContrib="28" flow="1680.00" occupancy="12.38" speed="18.67" length="5.00" nVehEntered="27"/>
    <interval begin="420.00" end="480.00" id="mainline_eval_5_1" nVehContrib="31" flow="1860.00" occupancy="13.75" speed="18.86" length="5.00" nVehEntered="31"/>
    <interval begin="420.00" end="480.00" id="mainline_eval_5_2" nVehContrib="38" flow="2280.00" occupancy="15.25" speed="20.78" length="5.00" nVehEntered="38"/>