<?xml version="1.0" encoding="UTF-8"?>

<!-- generated on 02/11/19 19:28:56 by Eclipse SUMO Version 1.0.1
<configuration xmlns:xsi="http://www.w3.org/2001/XMLSchema-instance" xsi:noNamespaceSchemaLocation="http://sumo.dlr.de/xsd/sumoConfiguration.xsd">

    <input>
        <net-file value="./project/ramp.net.xml"/>
        <route-files value="./project/ramp.rou.xml"/>
        <additional-files value="./project/ramp.add.xml"/>
    </input>

    <time>
        <begin value="0"/>
    </time>

    <report>
        <verbose value="true"/>
        <no-step-log value="true"/>
    </report>

    <traci_server>
        <remote-port value="50916"/>
    </traci_server>

    <random_number>
        <seed value="792380830"/>
    </random_number>

    <gui_only>
        <quit-on-end value="true"/>
        <start value="true"/>
    </gui_only>

</configuration>
-->

<detector xmlns:xsi="http://www.w3.org/2001/XMLSchema-instance" xsi:noNamespaceSchemaLocation="http://sumo.dlr.de/xsd/det_e1_file.xsd">
    <interval begin="0.00" end="60.00" id="mainline_eval_0_0" nVehContrib="0" flow="0.00" occupancy="0.00" speed="-1.00" length="-1.00" nVehEntered="0"/>
    <interval begin="0.00" end="60.00" id="mainline_eval_0_1" nVehContrib="0" flow="0.00" occupancy="0.00" speed="-1.00" length="-1.00" nVehEntered="0"/>
    <interval begin="0.00" end="60.00" id="mainline_eval_0_2" nVehContrib="0" flow="0.00" occupancy="0.00" speed="-1.00" length="-1.00" nVehEntered="0"/>
    <interval begin="0.00" end="60.00" id="mainline_eval_1_0" nVehContrib="0" flow="0.00" occupancy="0.00" speed="-1.00" length="-1.00" nVehEntered="0"/>
    <interval begin="0.00" end="60.00" id="mainline_eval_1_1" nVehContrib="0" flow="0.00" occupancy="0.00" speed="-1.00" length="-1.00" nVehEntered="0"/>
    <interval begin="0.00" end="60.00" id="mainline_eval_1_2" nVehContrib="0" flow="0.00" occupancy="0.00" speed="-1.00" length="-1.00" nVehEntered="0"/>
    <interval begin="0.00" end="60.00" id="mainline_eval_2_0" nVehContrib="0" flow="0.00" occupancy="0.00" speed="-1.00" length="-1.00" nVehEntered="0"/>
    <interval begin="0.00" end="60.00" id="mainline_eval_2_1" nVehContrib="0" flow="0.00" occupancy="0.00" speed="-1.00" length="-1.00" nVehEntered="0"/>
    <interval begin="0.00" end="60.00" id="mainline_eval_2_2" nVehContrib="0" flow="0.00" occupancy="0.00" speed="-1.00" length="-1.00" nVehEntered="0"/>
    <interval begin="0.00" end="60.00" id="mainline_eval_3_0" nVehContrib="0" flow="0.00" occupancy="0.00" speed="-1.00" length="-1.00" nVehEntered="0"/>
    <interval begin="0.00" end="60.00" id="mainline_eval_3_1" nVehContrib="0" flow="0.00" occupancy="0.00" speed="-1.00" length="-1.00" nVehEntered="0"/>
    <interval begin="0.00" end="60.00" id="mainline_eval_3_2" nVehContrib="0" flow="0.00" occupancy="0.00" speed="-1.00" length="-1.00" nVehEntered="0"/>
    <interval begin="0.00" end="60.00" id="mainline_eval_3_3" nVehContrib="0" flow="0.00" occupancy="0.00" speed="-1.00" length="-1.00" nVehEntered="0"/>
    <interval begin="0.00" end="60.00" id="mainline_eval_4_0" nVehContrib="0" flow="0.00" occupancy="0.00" speed="-1.00" length="-1.00" nVehEntered="0"/>
    <interval begin="0.00" end="60.00" id="mainline_eval_4_1" nVehContrib="0" flow="0.00" occupancy="0.00" speed="-1.00" length="-1.00" nVehEntered="0"/>
    <interval begin="0.00" end="60.00" id="mainline_eval_4_2" nVehContrib="0" flow="0.00" occupancy="0.00" speed="-1.00" length="-1.00" nVehEntered="0"/>
    <interval begin="0.00" end="60.00" id="mainline_eval_4_3" nVehContrib="0" flow="0.00" occupancy="0.00" speed="-1.00" length="-1.00" nVehEntered="0"/>
    <interval begin="0.00" end="60.00" id="mainline_eval_5_0" nVehContrib="0" flow="0.00" occupancy="0.00" speed="-1.00" length="-1.00" nVehEntered="0"/>
    <interval begin="0.00" end="60.00" id="mainline_eval_5_1" nVehContrib="0" flow="0.00" occupancy="0.00" speed="-1.00" length="-1.00" nVehEntered="0"/>
    <interval begin="0.00" end="60.00" id="mainline_eval_5_2" nVehContrib="0" flow="0.00" occupancy="0.00" speed="-1.00" length="-1.00" nVehEntered="0"/>
    <interval begin="0.00" end="60.00" id="mainline_eval_6_0" nVehContrib="0" flow="0.00" occupancy="0.00" speed="-1.00" length="-1.00" nVehEntered="0"/>
    <interval begin="0.00" end="60.00" id="mainline_eval_6_1" nVehContrib="0" flow="0.00" occupancy="0.00" speed="-1.00" length="-1.00" nVehEntered="0"/>
    <interval begin="0.00" end="60.00" id="mainline_eval_6_2" nVehContrib="0" flow="0.00" occupancy="0.00" speed="-1.00" length="-1.00" nVehEntered="0"/>
    <interval begin="60.00" end="120.00" id="mainline_eval_0_0" nVehContrib="16" flow="960.00" occupancy="6.94" speed="19.69" length="5.00" nVehEntered="17"/>
    <interval begin="60.00" end="120.00" id="mainline_eval_0_1" nVehContrib="14" flow="840.00" occupancy="5.56" speed="21.09" length="5.00" nVehEntered="14"/>
    <interval begin="60.00" end="120.00" id="mainline_eval_0_2" nVehContrib="18" flow="1080.00" occupancy="6.86" speed="22.07" length="5.00" nVehEntered="18"/>
    <interval begin="60.00" end="120.00" id="mainline_eval_1_0" nVehContrib="9" flow="540.00" occupancy="3.65" speed="20.68" length="5.00" nVehEntered="9"/>
    <interval begin="60.00" end="120.00" id="mainline_eval_1_1" nVehContrib="9" flow="540.00" occupancy="3.50" speed="21.56" length="5.00" nVehEntered="9"/>
    <interval begin="60.00" end="120.00" id="mainline_eval_1_2" nVehContrib="9" flow="540.00" occupancy="3.22" speed="23.43" length="5.00" nVehEntered="9"/>
    <interval begin="60.00" end="120.00" id="mainline_eval_2_0" nVehContrib="5" flow="300.00" occupancy="2.23" speed="21.96" length="5.00" nVehEntered="6"/>
    <interval begin="60.00" end="120.00" id="mainline_eval_2_1" nVehContrib="2" flow="120.00" occupancy="0.73" speed="22.80" length="5.00" nVehEntered="2"/>
    <interval begin="60.00" end="120.00" id="mainline_eval_2_2" nVehContrib="2" flow="120.00" occupancy="0.62" speed="26.90" length="5.00" nVehEntered="2"/>
    <interval begin="60.00" end="120.00" id="mainline_eval_3_0" nVehContrib="0" flow="0.00" occupancy="0.00" speed="-1.00" length="-1.00" nVehEntered="0"/>
    <interval begin="60.00" end="120.00" id="mainline_eval_3_1" nVehContrib="3" flow="180.00" occupancy="1.06" speed="23.62" length="5.00" nVehEntered="3"/>
    <interval begin="60.00" end="120.00" id="mainline_eval_3_2" nVehContrib="0" flow="0.00" occupancy="0.00" speed="-1.00" length="-1.00" nVehEntered="0"/>
    <interval begin="60.00" end="120.00" id="mainline_eval_3_3" nVehContrib="0" flow="0.00" occupancy="0.00" speed="-1.00" length="-1.00" nVehEntered="0"/>
    <interval begin="60.00" end="120.00" id="mainline_eval_4_0" nVehContrib="0" flow="0.00" occupancy="0.00" speed="-1.00" length="-1.00" nVehEntered="0"/>
    <interval begin="60.00" end="120.00" id="mainline_eval_4_1" nVehContrib="3" flow="180.00" occupancy="1.07" speed="23.39" length="5.00" nVehEntered="3"/>
    <interval begin="60.00" end="120.00" id="mainline_eval_4_2" nVehContrib="0" flow="0.00" occupancy="0.00" speed="-1.00" length="-1.00" nVehEntered="0"/>
    <interval begin="60.00" end="120.00" id="mainline_eval_4_3" nVehContrib="0" flow="0.00" occupancy="0.00" speed="-1.00" length="-1.00" nVehEntered="0"/>
    <interval begin="60.00" end="120.00" id="mainline_eval_5_0" nVehContrib="1" flow="60.00" occupancy="0.35" speed="24.13" length="5.00" nVehEntered="1"/>
    <interval begin="60.00" end="120.00" id="mainline_eval_5_1" nVehContrib="0" flow="0.00" occupancy="0.00" speed="-1.00" length="-1.00" nVehEntered="0"/>
    <interval begin="60.00" end="120.00" id="mainline_eval_5_2" nVehContrib="0" flow="0.00" occupancy="0.00" speed="-1.00" length="-1.00" nVehEntered="0"/>
    <interval begin="60.00" end="120.00" id="mainline_eval_6_0" nVehContrib="1" flow="60.00" occupancy="0.34" speed="24.37" length="5.00" nVehEntered="1"/>
    <interval begin="60.00" end="120.00" id="mainline_eval_6_1" nVehContrib="0" flow="0.00" occupancy="0.00" speed="-1.00" length="-1.00" nVehEntered="0"/>
    <interval begin="60.00" end="120.00" id="mainline_eval_6_2" nVehContrib="0" flow="0.00" occupancy="0.00" speed="-1.00" length="-1.00" nVehEntered="0"/>
    <interval begin="120.00" end="180.00" id="mainline_eval_0_0" nVehContrib="18" flow="1080.00" occupancy="8.40" speed="17.71" length="5.00" nVehEntered="18"/>
    <interval begin="120.00" end="180.00" id="mainline_eval_0_1" nVehContrib="29" flow="1740.00" occupancy="14.21" speed="18.45" length="5.00" nVehEntered="29"/>
    <interval begin="120.00" end="180.00" id="mainline_eval_0_2" nVehContrib="34" flow="2040.00" occupancy="14.67" speed="19.33" length="5.00" nVehEntered="34"/>
    <interval begin="120.00" end="180.00" id="mainline_eval_1_0" nVehContrib="19" flow="1140.00" occupancy="8.57" speed="18.55" length="5.00" nVehEntered="19"/>
    <interval begin="120.00" end="180.00" id="mainline_eval_1_1" nVehContrib="23" flow="1380.00" occupancy="10.09" speed="19.12" length="5.00" nVehEntered="23"/>
    <interval begin="120.00" end="180.00" id="mainline_eval_1_2" nVehContrib="29" flow="1740.00" occupancy="11.62" speed="20.85" length="5.00" nVehEntered="29"/>
    <interval begin="120.00" end="180.00" id="mainline_eval_2_0" nVehContrib="17" flow="1020.00" occupancy="7.11" speed="19.11" length="5.00" nVehEntered="16"/>
    <interval begin="120.00" end="180.00" id="mainline_eval_2_1" nVehContrib="19" flow="1140.00" occupancy="7.81" speed="20.34" length="5.00" nVehEntered="19"/>
    <interval begin="120.00" end="180.00" id="mainline_eval_2_2" nVehContrib="26" flow="1560.00" occupancy="10.28" speed="21.19" length="5.00" nVehEntered="26"/>
    <interval begin="120.00" end="180.00" id="mainline_eval_3_0" nVehContrib="0" flow="0.00" occupancy="0.00" speed="-1.00" length="-1.00" nVehEntered="1"/>
    <interval begin="120.00" end="180.00" id="mainline_eval_3_1" nVehContrib="19" flow="1140.00" occupancy="10.52" speed="16.96" length="5.00" nVehEntered="19"/>
    <interval begin="120.00" end="180.00" id="mainline_eval_3_2" nVehContrib="21" flow="1260.00" occupancy="8.39" speed="20.93" length="5.00" nVehEntered="21"/>
    <interval begin="120.00" end="180.00" id="mainline_eval_3_3" nVehContrib="23" flow="1380.00" occupancy="8.67" speed="22.23" length="5.00" nVehEntered="23"/>
    <interval begin="120.00" end="180.00" id="mainline_eval_4_0" nVehContrib="0" flow="0.00" occupancy="0.00" speed="-1.00" length="-1.00" nVehEntered="0"/>
    <interval begin="120.00" end="180.00" id="mainline_eval_4_1" nVehContrib="18" flow="1080.00" occupancy="8.03" speed="18.78" length="5.00" nVehEntered="18"/>
    <interval begin="120.00" end="180.00" id="mainline_eval_4_2" nVehContrib="20" flow="1200.00" occupancy="7.88" speed="21.22" length="5.00" nVehEntered="20"/>
    <interval begin="120.00" end="180.00" id="mainline_eval_4_3" nVehContrib="20" flow="1200.00" occupancy="7.41" speed="22.63" length="5.00" nVehEntered="20"/>
    <interval begin="120.00" end="180.00" id="mainline_eval_5_0" nVehContrib="13" flow="780.00" occupancy="5.35" speed="20.31" length="5.00" nVehEntered="13"/>
    <interval begin="120.00" end="180.00" id="mainline_eval_5_1" nVehContrib="15" flow="900.00" occupancy="6.04" speed="20.79" length="5.00" nVehEntered="15"/>
    <interval begin="120.00" end="180.00" id="mainline_eval_5_2" nVehContrib="13" flow="780.00" occupancy="4.60" speed="23.63" length="5.00" nVehEntered="13"/>
    <interval begin="120.00" end="180.00" id="mainline_eval_6_0" nVehContrib="12" flow="720.00" occupancy="4.94" speed="20.32" length="5.00" nVehEntered="12"/>
    <interval begin="120.00" end="180.00" id="mainline_eval_6_1" nVehContrib="12" flow="720.00" occupancy="4.83" speed="20.80" length="5.00" nVehEntered="12"/>
    <interval begin="120.00" end="180.00" id="mainline_eval_6_2" nVehContrib="11" flow="660.00" occupancy="3.85" speed="23.85" length="5.00" nVehEntered="11"/>
    <interval begin="180.00" end="240.00" id="mainline_eval_0_0" nVehContrib="19" flow="1140.00" occupancy="8.68" speed="18.35" length="5.00" nVehEntered="19"/>
    <interval begin="180.00" end="240.00" id="mainline_eval_0_1" nVehContrib="24" flow="1440.00" occupancy="10.19" speed="19.65" length="5.00" nVehEntered="24"/>
    <interval begin="180.00" end="240.00" id="mainline_eval_0_2" nVehContrib="31" flow="1860.00" occupancy="12.36" speed="20.94" length="5.00" nVehEntered="31"/>
    <interval begin="180.00" end="240.00" id="mainline_eval_1_0" nVehContrib="19" flow="1140.00" occupancy="8.44" speed="18.88" length="5.00" nVehEntered="19"/>
    <interval begin="180.00" end="240.00" id="mainline_eval_1_1" nVehContrib="23" flow="1380.00" occupancy="9.62" speed="19.96" length="5.00" nVehEntered="23"/>
    <interval begin="180.00" end="240.00" id="mainline_eval_1_2" nVehContrib="34" flow="2040.00" occupancy="13.85" speed="20.49" length="5.00" nVehEntered="34"/>
    <interval begin="180.00" end="240.00" id="mainline_eval_2_0" nVehContrib="18" flow="1080.00" occupancy="8.04" speed="18.74" length="5.00" nVehEntered="18"/>
    <interval begin="180.00" end="240.00" id="mainline_eval_2_1" nVehContrib="30" flow="1800.00" occupancy="12.70" speed="19.73" length="5.00" nVehEntered="30"/>
    <interval begin="180.00" end="240.00" id="mainline_eval_2_2" nVehContrib="33" flow="1980.00" occupancy="13.43" speed="20.55" length="5.00" nVehEntered="33"/>
    <interval begin="180.00" end="240.00" id="mainline_eval_3_0" nVehContrib="3" flow="180.00" occupancy="2.21" speed="11.58" length="5.00" nVehEntered="3"/>
    <interval begin="180.00" end="240.00" id="mainline_eval_3_1" nVehContrib="23" flow="1380.00" occupancy="13.63" speed="14.89" length="5.00" nVehEntered="23"/>
    <interval begin="180.00" end="240.00" id="mainline_eval_3_2" nVehContrib="29" flow="1740.00" occupancy="13.04" speed="18.74" length="5.00" nVehEntered="29"/>
    <interval begin="180.00" end="240.00" id="mainline_eval_3_3" nVehContrib="35" flow="2100.00" occupancy="14.12" speed="20.67" length="5.00" nVehEntered="35"/>
    <interval begin="180.00" end="240.00" id="mainline_eval_4_0" nVehContrib="1" flow="60.00" occupancy="1.00" speed="8.34" length="5.00" nVehEntered="1"/>
    <interval begin="180.00" end="240.00" id="mainline_eval_4_1" nVehContrib="24" flow="1440.00" occupancy="12.64" speed="16.38" length="5.00" nVehEntered="25"/>
    <interval begin="180.00" end="240.00" id="mainline_eval_4_2" nVehContrib="30" flow="1800.00" occupancy="13.53" speed="18.61" length="5.00" nVehEntered="30"/>
    <interval begin="180.00" end="240.00" id="mainline_eval_4_3" nVehContrib="36" flow="2160.00" occupancy="14.51" speed="20.69" length="5.00" nVehEntered="36"/>
    <interval begin="180.00" end="240.00" id="mainline_eval_5_0" nVehContrib="28" flow="1680.00" occupancy="12.91" speed="18.11" length="5.00" nVehEntered="28"/>
    <interval begin="180.00" end="240.00" id="mainline_eval_5_1" nVehContrib="29" flow="1740.00" occupancy="12.61" speed="19.27" length="5.00" nVehEntered="29"/>
    <interval begin="180.00" end="240.00" id="mainline_eval_5_2" nVehContrib="36" flow="2160.00" occupancy="14.32" speed="20.98" length="5.00" nVehEntered="36"/>
    <interval begin="180.00" end="240.00" id="mainline_eval_6_0" nVehContrib="27" flow="1620.00" occupancy="12.49" speed="18.20" length="5.00" nVehEntered="28"/>
    <interval begin="180.00" end="240.00" id="mainline_eval_6_1" nVehContrib="28" flow="1680.00" occupancy="12.16" speed="19.33" length="5.00" nVehEntered="28"/>
    <interval begin="180.00" end="240.00" id="mainline_eval_6_2" nVehContrib="35" flow="2100.00" occupancy="13.95" speed="20.93" length="5.00" nVehEntered="35"/>
    <interval begin="240.00" end="300.00" id="mainline_eval_0_0" nVehContrib="16" flow="960.00" occupancy="7.22" speed="18.55" length="5.00" nVehEntered="17"/>
    <interval begin="240.00" end="300.00" id="mainline_eval_0_1" nVehContrib="26" flow="1560.00" occupancy="12.55" speed="19.07" length="5.00" nVehEntered="26"/>
    <interval begin="240.00" end="300.00" id="mainline_eval_0_2" nVehContrib="32" flow="1920.00" occupancy="12.63" speed="21.14" length="5.00" nVehEntered="32"/>
    <interval begin="240.00" end="300.00" id="mainline_eval_1_0" nVehContrib="18" flow="1080.00" occupancy="8.13" speed="18.55" length="5.00" nVehEntered="18"/>
    <interval begin="240.00" end="300.00" id="mainline_eval_1_1" nVehContrib="31" flow="1860.00" occupancy="12.91" speed="20.08" length="5.00" nVehEntered="31"/>
    <interval begin="240.00" end="300.00" id="mainline_eval_1_2" nVehContrib="34" flow="2040.00" occupancy="13.41" speed="21.17" length="5.00" nVehEntered="34"/>
    <interval begin="240.00" end="300.00" id="mainline_eval_2_0" nVehContrib="21" flow="1260.00" occupancy="9.38" speed="18.77" length="5.00" nVehEntered="21"/>
    <interval begin="240.00" end="300.00" id="mainline_eval_2_1" nVehContrib="27" flow="1620.00" occupancy="12.02" speed="18.90" length="5.00" nVehEntered="27"/>
    <interval begin="240.00" end="300.00" id="mainline_eval_2_2" nVehContrib="34" flow="2040.00" occupancy="13.57" speed="20.92" length="5.00" nVehEntered="34"/>
    <interval begin="240.00" end="300.00" id="mainline_eval_3_0" nVehContrib="3" flow="180.00" occupancy="2.01" speed="12.44" length="5.00" nVehEntered="3"/>
    <interval begin="240.00" end="300.00" id="mainline_eval_3_1" nVehContrib="25" flow="1500.00" occupancy="13.38" speed="16.10" length="5.00" nVehEntered="25"/>
    <interval begin="240.00" end="300.00" id="mainline_eval_3_2" nVehContrib="29" flow="1740.00" occupancy="12.91" speed="18.82" length="5.00" nVehEntered="29"/>
    <interval begin="240.00" end="300.00" id="mainline_eval_3_3" nVehContrib="33" flow="1980.00" occupancy="13.19" speed="20.90" length="5.00" nVehEntered="33"/>
    <interval begin="240.00" end="300.00" id="mainline_eval_4_0" nVehContrib="0" flow="0.00" occupancy="0.00" speed="-1.00" length="-1.00" nVehEntered="0"/>
    <interval begin="240.00" end="300.00" id="mainline_eval_4_1" nVehContrib="27" flow="1620.00" occupancy="13.33" speed="16.92" length="5.00" nVehEntered="26"/>
    <interval begin="240.00" end="300.00" id="mainline_eval_4_2" nVehContrib="29" flow="1740.00" occupancy="13.52" speed="18.40" length="5.00" nVehEntered="30"/>
    <interval begin="240.00" end="300.00" id="mainline_eval_4_3" nVehContrib="32" flow="1920.00" occupancy="12.57" speed="21.27" length="5.00" nVehEntered="32"/>
    <interval begin="240.00" end="300.00" id="mainline_eval_5_0" nVehContrib="27" flow="1620.00" occupancy="12.87" speed="17.62" length="5.00" nVehEntered="27"/>
    <interval begin="240.00" end="300.00" id="mainline_eval_5_1" nVehContrib="26" flow="1560.00" occupancy="11.83" speed="18.50" length="5.00" nVehEntered="26"/>
    <interval begin="240.00" end="300.00" id="mainline_eval_5_2" nVehContrib="34" flow="2040.00" occupancy="13.45" speed="21.12" length="5.00" nVehEntered="34"/>
    <interval begin="240.00" end="300.00" id="mainline_eval_6_0" nVehContrib="26" flow="1560.00" occupancy="12.43" speed="17.56" length="5.00" nVehEntered="25"/>
    <interval begin="240.00" end="300.00" id="mainline_eval_6_1" nVehContrib="30" flow="1800.00" occupancy="13.68" speed="18.39" length="5.00" nVehEntered="30"/>
    <interval begin="240.00" end="300.00" id="mainline_eval_6_2" nVehContrib="35" flow="2100.00" occupancy="14.02" speed="20.85" length="5.00" nVehEntered="35"/>
    <interval begin="300.00" end="360.00" id="mainline_eval_0_0" nVehContrib="18" flow="1080.00" occupancy="8.18" speed="18.39" length="5.00" nVehEntered="18"/>
    <interval begin="300.00" end="360.00" id="mainline_eval_0_1" nVehContrib="29" flow="1740.00" occupancy="12.39" speed="19.60" length="5.00" nVehEntered="29"/>
    <interval begin="300.00" end="360.00" id="mainline_eval_0_2" nVehContrib="35" flow="2100.00" occupancy="13.68" speed="21.40" length="5.00" nVehEntered="35"/>
    <interval begin="300.00" end="360.00" id="mainline_eval_1_0" nVehContrib="18" flow="1080.00" occupancy="8.32" speed="18.08" length="5.00" nVehEntered="18"/>
    <interval begin="300.00" end="360.00" id="mainline_eval_1_1" nVehContrib="27" flow="1620.00" occupancy="11.66" speed="19.37" length="5.00" nVehEntered="27"/>
    <interval begin="300.00" end="360.00" id="mainline_eval_1_2" nVehContrib="34" flow="2040.00" occupancy="13.73" speed="20.67" length="5.00" nVehEntered="34"/>
    <interval begin="300.00" end="360.00" id="mainline_eval_2_0" nVehContrib="11" flow="660.00" occupancy="5.00" speed="18.44" length="5.00" nVehEntered="11"/>
    <interval begin="300.00" end="360.00" id="mainline_eval_2_1" nVehContrib="26" flow="1560.00" occupancy="11.14" speed="19.56" length="5.00" nVehEntered="26"/>
    <interval begin="300.00" end="360.00" id="mainline_eval_2_2" nVehContrib="34" flow="2040.00" occupancy="13.74" speed="20.68" length="5.00" nVehEntered="34"/>
    <interval begin="300.00" end="360.00" id="mainline_eval_3_0" nVehContrib="5" flow="300.00" occupancy="3.98" speed="10.65" length="5.00" nVehEntered="5"/>
    <interval begin="300.00" end="360.00" id="mainline_eval_3_1" nVehContrib="24" flow="1440.00" occupancy="14.78" speed="13.96" length="5.00" nVehEntered="25"/>
    <interval begin="300.00" end="360.00" id="mainline_eval_3_2" nVehContrib="27" flow="1620.00" occupancy="13.71" speed="18.18" length="5.00" nVehEntered="27"/>
    <interval begin="300.00" end="360.00" id="mainline_eval_3_3" nVehContrib="33" flow="1980.00" occupancy="13.14" speed="20.99" length="5.00" nVehEntered="33"/>
    <interval begin="300.00" end="360.00" id="mainline_eval_4_0" nVehContrib="2" flow="120.00" occupancy="3.28" speed="5.75" length="5.00" nVehEntered="2"/>
    <interval begin="300.00" end="360.00" id="mainline_eval_4_1" nVehContrib="27" flow="1620.00" occupancy="18.91" speed="13.89" length="5.00" nVehEntered="27"/>
    <interval begin="300.00" end="360.00" id="mainline_eval_4_2" nVehContrib="28" flow="1680.00" occupancy="12.68" speed="18.59" length="5.00" nVehEntered="28"/>
    <interval begin="300.00" end="360.00" id="mainline_eval_4_3" nVehContrib="34" flow="2040.00" occupancy="15.18" speed="20.69" length="5.00" nVehEntered="35"/>
    <interval begin="300.00" end="360.00" id="mainline_eval_5_0" nVehContrib="26" flow="1560.00" occupancy="12.37" speed="17.62" length="5.00" nVehEntered="26"/>
    <interval begin="300.00" end="360.00" id="mainline_eval_5_1" nVehContrib="32" flow="1920.00" occupancy="15.18" speed="17.84" length="5.00" nVehEntered="33"/>
    <interval begin="300.00" end="360.00" id="mainline_eval_5_2" nVehContrib="35" flow="2100.00" occupancy="13.68" speed="21.41" length="5.00" nVehEntered="36"/>
    <interval begin="300.00" end="360.00" id="mainline_eval_6_0" nVehContrib="26" flow="1560.00" occupancy="11.87" speed="18.36" length="5.00" nVehEntered="26"/>
    <interval begin="300.00" end="360.00" id="mainline_eval_6_1" nVehContrib="31" flow="1860.00" occupancy="13.73" speed="18.92" length="5.00" nVehEntered="31"/>
    <interval begin="300.00" end="360.00" id="mainline_eval_6_2" nVehContrib="35" flow="2100.00" occupancy="13.54" speed="21.61" length="5.00" nVehEntered="35"/>
    <interval begin="360.00" end="420.00" id="mainline_eval_0_0" nVehContrib="20" flow="1200.00" occupancy="9.34" speed="17.95" length="5.00" nVehEntered="20"/>
    <interval begin="360.00" end="420.00" id="mainline_eval_0_1" nVehContrib="24" flow="1440.00" occupancy="10.33" speed="19.75" length="5.00" nVehEntered="25"/>
    <interval begin="360.00" end="420.00" id="mainline_eval_0_2" nVehContrib="36" flow="2160.00" occupancy="14.00" speed="21.44" length="5.00" nVehEntered="36"/>
    <interval begin="360.00" end="420.00" id="mainline_eval_1_0" nVehContrib="19" flow="1140.00" occupancy="8.61" speed="18.50" length="5.00" nVehEntered="19"/>
    <interval begin="360.00" end="420.00" id="mainline_eval_1_1" nVehContrib="24" flow="1440.00" occupancy="9.81" speed="20.81" length="5.00" nVehEntered="25"/>
    <interval begin="360.00" end="420.00" id="mainline_eval_1_2" nVehContrib="32" flow="1920.00" occupancy="12.37" speed="21.58" length="5.00" nVehEntered="32"/>
    <interval begin="360.00" end="420.00" id="mainline_eval_2_0" nVehContrib="15" flow="900.00" occupancy="6.80" speed="18.47" length="5.00" nVehEntered="15"/>
    <interval begin="360.00" end="420.00" id="mainline_eval_2_1" nVehContrib="27" flow="1620.00" occupancy="11.31" speed="19.96" length="5.00" nVehEntered="27"/>
    <interval begin="360.00" end="420.00" id="mainline_eval_2_2" nVehContrib="36" flow="2160.00" occupancy="14.42" speed="20.85" length="5.00" nVehEntered="36"/>
    <interval begin="360.00" end="420.00" id="mainline_eval_3_0" nVehContrib="3" flow="180.00" occupancy="2.17" speed="11.55" length="5.00" nVehEntered="3"/>
    <interval begin="360.00" end="420.00" id="mainline_eval_3_1" nVehContrib="23" flow="1380.00" occupancy="12.60" speed="15.71" length="5.00" nVehEntered="23"/>
    <interval begin="360.00" end="420.00" id="mainline_eval_3_2" nVehContrib="30" flow="1800.00" occupancy="13.43" speed="18.80" length="5.00" nVehEntered="30"/>
    <interval begin="360.00" end="420.00" id="mainline_eval_3_3" nVehContrib="37" flow="2220.00" occupancy="15.46" speed="20.53" length="5.00" nVehEntered="38"/>
    <interval begin="360.00" end="420.00" id="mainline_eval_4_0" nVehContrib="2" flow="120.00" occupancy="2.15" speed="8.15" length="5.00" nVehEntered="2"/>
    <interval begin="360.00" end="420.00" id="mainline_eval_4_1" nVehContrib="23" flow="1380.00" occupancy="13.19" speed="16.02" length="5.00" nVehEntered="23"/>
    <interval begin="360.00" end="420.00" id="mainline_eval_4_2" nVehContrib="30" flow="1800.00" occupancy="13.33" speed="18.81" length="5.00" nVehEntered="30"/>
    <interval begin="360.00" end="420.00" id="mainline_eval_4_3" nVehContrib="40" flow="2400.00" occupancy="16.05" speed="20.43" length="5.00" nVehEntered="39"/>
    <interval begin="360.00" end="420.00" id="mainline_eval_5_0" nVehContrib="22" flow="1320.00" occupancy="10.54" speed="17.51" length="5.00" nVehEntered="22"/>
    <interval begin="360.00" end="420.00" id="mainline_eval_5_1" nVehContrib="32" flow="1920.00" occupancy="14.07" speed="18.84" length="5.00" nVehEntered="31"/>
    <interval begin="360.00" end="420.00" id="mainline_eval_5_2" nVehContrib="41" flow="2460.00" occupancy="16.65" speed="20.57" length="5.00" nVehEntered="41"/>
    <interval begin="360.00" end="420.00" id="mainline_eval_6_0" nVehContrib="21" flow="1260.00" occupancy="9.86" speed="17.80" length="5.00" nVehEntered="21"/>
    <interval begin="360.00" end="420.00" id="mainline_eval_6_1" nVehContrib="32" flow="1920.00" occupancy="14.17" speed="18.90" length="5.00" nVehEntered="32"/>
    <interval begin="360.00" end="420.00" id="mainline_eval_6_2" nVehContrib="40" flow="2400.00" occupancy="16.16" speed="20.66" length="5.00" nVehEntered="40"/>
    <interval begin="420.00" end="480.00" id="mainline_eval_0_0" nVehContrib="15" flow="900.00" occupancy="7.00" speed="17.93" length="5.00" nVehEntered="15"/>
    <interval begin="420.00" end="480.00" id="mainline_eval_0_1" nVehContrib="29" flow="1740.00" occupancy="11.84" speed="20.17" length="5.00" nVehEntered="28"/>
    <interval begin="420.00" end="480.00" id="mainline_eval_0_2" nVehContrib="32" flow="1920.00" occupancy="12.29" speed="21.72" length="5.00" nVehEntered="32"/>
    <interval begin="420.00" end="480.00" id="mainline_eval_1_0" nVehContrib="16" flow="960.00" occupancy="7.17" speed="18.68" length="5.00" nVehEntered="16"/>
    <interval begin="420.00" end="480.00" id="mainline_eval_1_1" nVehContrib="28" flow="1680.00" occupancy="11.33" speed="20.29" length="5.00" nVehEntered="27"/>
    <interval begin="420.00" end="480.00" id="mainline_eval_1_2" nVehContrib="37" flow="2220.00" occupancy="14.38" speed="21.48" length="5.00" nVehEntered="37"/>
    <interval begin="420.00" end="480.00" id="mainline_eval_2_0" nVehContrib="18" flow="1080.00" occupancy="8.22" speed="18.29" length="5.00" nVehEntered="18"/>
    <interval begin="420.00" end="480.00" id="mainline_eval_2_1" nVehContrib="34" flow="2040.00" occupancy="14.96" speed="19.06" length="5.00" nVehEntered="34"/>
    <interval begin="420.00" end="480.00" id="mainline_eval_2_2" nVehContrib="35" flow="2100.00" occupancy="13.40" speed="21.84" length="5.00" nVehEntered="35"/>
    <interval begin="420.00" end="480.00" id="mainline_eval_3_0" nVehContrib="2" flow="120.00" occupancy="1.45" speed="11.51" length="5.00" nVehEntered="3"/>
    <interval begin="420.00" end="480.00" id="mainline_eval_3_1" nVehContrib="22" flow="1320.00" occupancy="14.57" speed="14.62" length="5.00" nVehEntered="22"/>
    <interval begin="420.00" end="480.00" id="mainline_eval_3_2" nVehContrib="30" flow="1800.00" occupancy="13.91" speed="18.83" length="5.00" nVehEntered="31"/>
    <interval begin="420.00" end="480.00" id="mainline_eval_3_3" nVehContrib="38" flow="2280.00" occupancy="14.40" speed="21.70" length="5.00" nVehEntered="38"/>
    <interval begin="420.00" end="480.00" id="mainline_eval_4_0" nVehContrib="0" flow="0.00" occupancy="0.00" speed="-1.00" length="-1.00" nVehEntered="1"/>
    <interval begin="420.00" end="480.00" id="mainline_eval_4_1" nVehContrib="21" flow="1260.00" occupancy="12.56" speed="16.08" length="5.00" nVehEntered="21"/>
    <interval begin="420.00" end="480.00" id="mainline_eval_4_2" nVehContrib="32" flow="1920.00" occupancy="14.56" speed="18.50" length="5.00" nVehEntered="32"/>
    <interval begin="420.00" end="480.00" id="mainline_eval_4_3" nVehContrib="37" flow="2220.00" occupancy="14.20" speed="21.74" length="5.00" nVehEntered="37"/>
    <interval begin="420.00" end="480.00" id="mainline_eval_5_0" nVehContrib="19" flow="1140.00" occupancy="8.96" speed="17.77" length="5.00" nVehEntered="19"/>
    <interval begin="420.00" end="480.00" id="mainline_eval_5_1" nVehContrib="30" flow="1800.00" occupancy="14.10" speed="17.97" length="5.00" nVehEntered="30"/>
    <interval begin="420.00" end="480.00" id="mainline_eval_5_2" nVehContrib="38" flow="2280.00" occupancy="14.96" speed="21.16" length="5.00" nVehEntered="37"/>