<?xml version="1.0" encoding="UTF-8"?>

<!-- generated on 02/22/19 15:59:31 by Eclipse SUMO Version 1.0.1
<configuration xmlns:xsi="http://www.w3.org/2001/XMLSchema-instance" xsi:noNamespaceSchemaLocation="http://sumo.dlr.de/xsd/sumoConfiguration.xsd">

    <input>
        <net-file value="./project/ramp.net.xml"/>
        <route-files value="./project/ramp.rou.xml"/>
        <additional-files value="./project/ramp.add.xml"/>
    </input>

    <time>
        <begin value="0"/>
    </time>

    <report>
        <verbose value="true"/>
        <no-step-log value="true"/>
    </report>

    <traci_server>
        <remote-port value="58431"/>
    </traci_server>

    <random_number>
        <seed value="979597159"/>
    </random_number>

    <gui_only>
        <quit-on-end value="true"/>
        <start value="true"/>
    </gui_only>

</configuration>
-->

<detector xmlns:xsi="http://www.w3.org/2001/XMLSchema-instance" xsi:noNamespaceSchemaLocation="http://sumo.dlr.de/xsd/det_e1_file.xsd">
    <interval begin="0.00" end="60.00" id="mainline_eval_0_0" nVehContrib="0" flow="0.00" occupancy="0.00" speed="-1.00" length="-1.00" nVehEntered="0"/>
    <interval begin="0.00" end="60.00" id="mainline_eval_0_1" nVehContrib="0" flow="0.00" occupancy="0.00" speed="-1.00" length="-1.00" nVehEntered="0"/>
    <interval begin="0.00" end="60.00" id="mainline_eval_0_2" nVehContrib="0" flow="0.00" occupancy="0.00" speed="-1.00" length="-1.00" nVehEntered="0"/>
    <interval begin="0.00" end="60.00" id="mainline_eval_1_0" nVehContrib="0" flow="0.00" occupancy="0.00" speed="-1.00" length="-1.00" nVehEntered="0"/>
    <interval begin="0.00" end="60.00" id="mainline_eval_1_1" nVehContrib="0" flow="0.00" occupancy="0.00" speed="-1.00" length="-1.00" nVehEntered="0"/>
    <interval begin="0.00" end="60.00" id="mainline_eval_1_2" nVehContrib="0" flow="0.00" occupancy="0.00" speed="-1.00" length="-1.00" nVehEntered="0"/>
    <interval begin="0.00" end="60.00" id="mainline_eval_2_0" nVehContrib="0" flow="0.00" occupancy="0.00" speed="-1.00" length="-1.00" nVehEntered="0"/>
    <interval begin="0.00" end="60.00" id="mainline_eval_2_1" nVehContrib="0" flow="0.00" occupancy="0.00" speed="-1.00" length="-1.00" nVehEntered="0"/>
    <interval begin="0.00" end="60.00" id="mainline_eval_2_2" nVehContrib="0" flow="0.00" occupancy="0.00" speed="-1.00" length="-1.00" nVehEntered="0"/>
    <interval begin="0.00" end="60.00" id="mainline_eval_3_0" nVehContrib="0" flow="0.00" occupancy="0.00" speed="-1.00" length="-1.00" nVehEntered="0"/>
    <interval begin="0.00" end="60.00" id="mainline_eval_3_1" nVehContrib="0" flow="0.00" occupancy="0.00" speed="-1.00" length="-1.00" nVehEntered="0"/>
    <interval begin="0.00" end="60.00" id="mainline_eval_3_2" nVehContrib="0" flow="0.00" occupancy="0.00" speed="-1.00" length="-1.00" nVehEntered="0"/>
    <interval begin="0.00" end="60.00" id="mainline_eval_3_3" nVehContrib="0" flow="0.00" occupancy="0.00" speed="-1.00" length="-1.00" nVehEntered="0"/>
    <interval begin="0.00" end="60.00" id="mainline_eval_4_0" nVehContrib="0" flow="0.00" occupancy="0.00" speed="-1.00" length="-1.00" nVehEntered="0"/>
    <interval begin="0.00" end="60.00" id="mainline_eval_4_1" nVehContrib="0" flow="0.00" occupancy="0.00" speed="-1.00" length="-1.00" nVehEntered="0"/>
    <interval begin="0.00" end="60.00" id="mainline_eval_4_2" nVehContrib="0" flow="0.00" occupancy="0.00" speed="-1.00" length="-1.00" nVehEntered="0"/>
    <interval begin="0.00" end="60.00" id="mainline_eval_4_3" nVehContrib="0" flow="0.00" occupancy="0.00" speed="-1.00" length="-1.00" nVehEntered="0"/>
    <interval begin="0.00" end="60.00" id="mainline_eval_5_0" nVehContrib="0" flow="0.00" occupancy="0.00" speed="-1.00" length="-1.00" nVehEntered="0"/>
    <interval begin="0.00" end="60.00" id="mainline_eval_5_1" nVehContrib="0" flow="0.00" occupancy="0.00" speed="-1.00" length="-1.00" nVehEntered="0"/>
    <interval begin="0.00" end="60.00" id="mainline_eval_5_2" nVehContrib="0" flow="0.00" occupancy="0.00" speed="-1.00" length="-1.00" nVehEntered="0"/>
    <interval begin="0.00" end="60.00" id="mainline_eval_6_0" nVehContrib="0" flow="0.00" occupancy="0.00" speed="-1.00" length="-1.00" nVehEntered="0"/>
    <interval begin="0.00" end="60.00" id="mainline_eval_6_1" nVehContrib="0" flow="0.00" occupancy="0.00" speed="-1.00" length="-1.00" nVehEntered="0"/>
    <interval begin="0.00" end="60.00" id="mainline_eval_6_2" nVehContrib="0" flow="0.00" occupancy="0.00" speed="-1.00" length="-1.00" nVehEntered="0"/>
    <interval begin="60.00" end="120.00" id="mainline_eval_0_0" nVehContrib="13" flow="780.00" occupancy="5.43" speed="19.99" length="5.00" nVehEntered="13"/>
    <interval begin="60.00" end="120.00" id="mainline_eval_0_1" nVehContrib="17" flow="1020.00" occupancy="6.66" speed="21.34" length="5.00" nVehEntered="17"/>
    <interval begin="60.00" end="120.00" id="mainline_eval_0_2" nVehContrib="20" flow="1200.00" occupancy="7.39" speed="22.59" length="5.00" nVehEntered="20"/>
    <interval begin="60.00" end="120.00" id="mainline_eval_1_0" nVehContrib="11" flow="660.00" occupancy="7.45" speed="17.16" length="5.00" nVehEntered="12"/>
    <interval begin="60.00" end="120.00" id="mainline_eval_1_1" nVehContrib="9" flow="540.00" occupancy="4.80" speed="20.15" length="5.00" nVehEntered="11"/>
    <interval begin="60.00" end="120.00" id="mainline_eval_1_2" nVehContrib="14" flow="840.00" occupancy="5.15" speed="22.74" length="5.00" nVehEntered="14"/>
    <interval begin="60.00" end="120.00" id="mainline_eval_2_0" nVehContrib="6" flow="360.00" occupancy="2.40" speed="20.96" length="5.00" nVehEntered="6"/>
    <interval begin="60.00" end="120.00" id="mainline_eval_2_1" nVehContrib="3" flow="180.00" occupancy="1.10" speed="22.77" length="5.00" nVehEntered="3"/>
    <interval begin="60.00" end="120.00" id="mainline_eval_2_2" nVehContrib="5" flow="300.00" occupancy="1.82" speed="24.01" length="5.00" nVehEntered="6"/>
    <interval begin="60.00" end="120.00" id="mainline_eval_3_0" nVehContrib="0" flow="0.00" occupancy="0.00" speed="-1.00" length="-1.00" nVehEntered="0"/>
    <interval begin="60.00" end="120.00" id="mainline_eval_3_1" nVehContrib="2" flow="120.00" occupancy="0.75" speed="22.30" length="5.00" nVehEntered="2"/>
    <interval begin="60.00" end="120.00" id="mainline_eval_3_2" nVehContrib="2" flow="120.00" occupancy="0.68" speed="24.47" length="5.00" nVehEntered="2"/>
    <interval begin="60.00" end="120.00" id="mainline_eval_3_3" nVehContrib="1" flow="60.00" occupancy="0.34" speed="24.29" length="5.00" nVehEntered="1"/>
    <interval begin="60.00" end="120.00" id="mainline_eval_4_0" nVehContrib="0" flow="0.00" occupancy="0.00" speed="-1.00" length="-1.00" nVehEntered="0"/>
    <interval begin="60.00" end="120.00" id="mainline_eval_4_1" nVehContrib="1" flow="60.00" occupancy="0.37" speed="22.73" length="5.00" nVehEntered="1"/>
    <interval begin="60.00" end="120.00" id="mainline_eval_4_2" nVehContrib="2" flow="120.00" occupancy="0.68" speed="24.49" length="5.00" nVehEntered="2"/>
    <interval begin="60.00" end="120.00" id="mainline_eval_4_3" nVehContrib="1" flow="60.00" occupancy="0.35" speed="24.10" length="5.00" nVehEntered="1"/>
    <interval begin="60.00" end="120.00" id="mainline_eval_5_0" nVehContrib="0" flow="0.00" occupancy="0.00" speed="-1.00" length="-1.00" nVehEntered="0"/>
    <interval begin="60.00" end="120.00" id="mainline_eval_5_1" nVehContrib="0" flow="0.00" occupancy="0.00" speed="-1.00" length="-1.00" nVehEntered="0"/>
    <interval begin="60.00" end="120.00" id="mainline_eval_5_2" nVehContrib="0" flow="0.00" occupancy="0.00" speed="-1.00" length="-1.00" nVehEntered="0"/>
    <interval begin="60.00" end="120.00" id="mainline_eval_6_0" nVehContrib="0" flow="0.00" occupancy="0.00" speed="-1.00" length="-1.00" nVehEntered="0"/>
    <interval begin="60.00" end="120.00" id="mainline_eval_6_1" nVehContrib="0" flow="0.00" occupancy="0.00" speed="-1.00" length="-1.00" nVehEntered="0"/>
    <interval begin="60.00" end="120.00" id="mainline_eval_6_2" nVehContrib="0" flow="0.00" occupancy="0.00" speed="-1.00" length="-1.00" nVehEntered="0"/>
    <interval begin="120.00" end="180.00" id="mainline_eval_0_0" nVehContrib="18" flow="1080.00" occupancy="8.44" speed="17.86" length="5.00" nVehEntered="18"/>
    <interval begin="120.00" end="180.00" id="mainline_eval_0_1" nVehContrib="24" flow="1440.00" occupancy="10.45" speed="19.27" length="5.00" nVehEntered="24"/>
    <interval begin="120.00" end="180.00" id="mainline_eval_0_2" nVehContrib="35" flow="2100.00" occupancy="14.26" speed="20.51" length="5.00" nVehEntered="35"/>
    <interval begin="120.00" end="180.00" id="mainline_eval_1_0" nVehContrib="19" flow="1140.00" occupancy="8.83" speed="18.10" length="5.00" nVehEntered="19"/>
    <interval begin="120.00" end="180.00" id="mainline_eval_1_1" nVehContrib="18" flow="1080.00" occupancy="7.84" speed="19.28" length="5.00" nVehEntered="19"/>
    <interval begin="120.00" end="180.00" id="mainline_eval_1_2" nVehContrib="24" flow="1440.00" occupancy="9.21" speed="21.92" length="5.00" nVehEntered="25"/>
    <interval begin="120.00" end="180.00" id="mainline_eval_2_0" nVehContrib="16" flow="960.00" occupancy="8.30" speed="18.37" length="5.00" nVehEntered="16"/>
    <interval begin="120.00" end="180.00" id="mainline_eval_2_1" nVehContrib="13" flow="780.00" occupancy="5.16" speed="21.02" length="5.00" nVehEntered="14"/>
    <interval begin="120.00" end="180.00" id="mainline_eval_2_2" nVehContrib="26" flow="1560.00" occupancy="9.62" speed="22.40" length="5.00" nVehEntered="25"/>
    <interval begin="120.00" end="180.00" id="mainline_eval_3_0" nVehContrib="2" flow="120.00" occupancy="1.24" speed="13.45" length="5.00" nVehEntered="3"/>
    <interval begin="120.00" end="180.00" id="mainline_eval_3_1" nVehContrib="16" flow="960.00" occupancy="8.62" speed="17.70" length="5.00" nVehEntered="17"/>
    <interval begin="120.00" end="180.00" id="mainline_eval_3_2" nVehContrib="17" flow="1020.00" occupancy="8.10" speed="20.04" length="5.00" nVehEntered="17"/>
    <interval begin="120.00" end="180.00" id="mainline_eval_3_3" nVehContrib="28" flow="1680.00" occupancy="10.47" speed="22.37" length="5.00" nVehEntered="28"/>
    <interval begin="120.00" end="180.00" id="mainline_eval_4_0" nVehContrib="1" flow="60.00" occupancy="0.97" speed="8.61" length="5.00" nVehEntered="1"/>
    <interval begin="120.00" end="180.00" id="mainline_eval_4_1" nVehContrib="16" flow="960.00" occupancy="7.02" speed="19.16" length="5.00" nVehEntered="16"/>
    <interval begin="120.00" end="180.00" id="mainline_eval_4_2" nVehContrib="17" flow="1020.00" occupancy="6.73" speed="21.10" length="5.00" nVehEntered="17"/>
    <interval begin="120.00" end="180.00" id="mainline_eval_4_3" nVehContrib="26" flow="1560.00" occupancy="9.85" speed="22.06" length="5.00" nVehEntered="26"/>
    <interval begin="120.00" end="180.00" id="mainline_eval_5_0" nVehContrib="13" flow="780.00" occupancy="5.42" speed="20.05" length="5.00" nVehEntered="13"/>
    <interval begin="120.00" end="180.00" id="mainline_eval_5_1" nVehContrib="17" flow="1020.00" occupancy="6.61" speed="21.53" length="5.00" nVehEntered="17"/>
    <interval begin="120.00" end="180.00" id="mainline_eval_5_2" nVehContrib="22" flow="1320.00" occupancy="8.34" speed="22.04" length="5.00" nVehEntered="22"/>
    <interval begin="120.00" end="180.00" id="mainline_eval_6_0" nVehContrib="11" flow="660.00" occupancy="4.57" speed="20.15" length="5.00" nVehEntered="11"/>
    <interval begin="120.00" end="180.00" id="mainline_eval_6_1" nVehContrib="15" flow="900.00" occupancy="5.75" speed="21.83" length="5.00" nVehEntered="15"/>
    <interval begin="120.00" end="180.00" id="mainline_eval_6_2" nVehContrib="19" flow="1140.00" occupancy="7.20" speed="22.04" length="5.00" nVehEntered="19"/>
    <interval begin="180.00" end="240.00" id="mainline_eval_0_0" nVehContrib="16" flow="960.00" occupancy="7.25" speed="18.42" length="5.00" nVehEntered="16"/>
    <interval begin="180.00" end="240.00" id="mainline_eval_0_1" nVehContrib="23" flow="1380.00" occupancy="10.21" speed="19.49" length="5.00" nVehEntered="24"/>
    <interval begin="180.00" end="240.00" id="mainline_eval_0_2" nVehContrib="31" flow="1860.00" occupancy="12.66" speed="20.48" length="5.00" nVehEntered="31"/>
    <interval begin="180.00" end="240.00" id="mainline_eval_1_0" nVehContrib="15" flow="900.00" occupancy="6.99" speed="17.99" length="5.00" nVehEntered="15"/>
    <interval begin="180.00" end="240.00" id="mainline_eval_1_1" nVehContrib="30" flow="1800.00" occupancy="14.09" speed="18.02" length="5.00" nVehEntered="29"/>
    <interval begin="180.00" end="240.00" id="mainline_eval_1_2" nVehContrib="38" flow="2280.00" occupancy="15.98" speed="19.88" length="5.00" nVehEntered="37"/>
    <interval begin="180.00" end="240.00" id="mainline_eval_2_0" nVehContrib="17" flow="1020.00" occupancy="8.14" speed="17.50" length="5.00" nVehEntered="17"/>
    <interval begin="180.00" end="240.00" id="mainline_eval_2_1" nVehContrib="28" flow="1680.00" occupancy="11.98" speed="19.50" length="5.00" nVehEntered="28"/>
    <interval begin="180.00" end="240.00" id="mainline_eval_2_2" nVehContrib="35" flow="2100.00" occupancy="14.40" speed="20.39" length="5.00" nVehEntered="36"/>
    <interval begin="180.00" end="240.00" id="mainline_eval_3_0" nVehContrib="7" flow="420.00" occupancy="5.63" speed="10.87" length="5.00" nVehEntered="7"/>
    <interval begin="180.00" end="240.00" id="mainline_eval_3_1" nVehContrib="23" flow="1380.00" occupancy="15.10" speed="13.61" length="5.00" nVehEntered="24"/>
    <interval begin="180.00" end="240.00" id="mainline_eval_3_2" nVehContrib="29" flow="1740.00" occupancy="14.71" speed="16.68" length="5.00" nVehEntered="29"/>
    <interval begin="180.00" end="240.00" id="mainline_eval_3_3" nVehContrib="34" flow="2040.00" occupancy="13.88" speed="20.46" length="5.00" nVehEntered="34"/>
    <interval begin="180.00" end="240.00" id="mainline_eval_4_0" nVehContrib="1" flow="60.00" occupancy="0.74" speed="11.24" length="5.00" nVehEntered="2"/>
    <interval begin="180.00" end="240.00" id="mainline_eval_4_1" nVehContrib="26" flow="1560.00" occupancy="16.84" speed="15.09" length="5.00" nVehEntered="27"/>
    <interval begin="180.00" end="240.00" id="mainline_eval_4_2" nVehContrib="28" flow="1680.00" occupancy="14.43" speed="16.52" length="5.00" nVehEntered="28"/>
    <interval begin="180.00" end="240.00" id="mainline_eval_4_3" nVehContrib="34" flow="2040.00" occupancy="13.88" speed="20.46" length="5.00" nVehEntered="34"/>
    <interval begin="180.00" end="240.00" id="mainline_eval_5_0" nVehContrib="20" flow="1200.00" occupancy="9.15" speed="18.37" length="5.00" nVehEntered="20"/>
    <interval begin="180.00" end="240.00" id="mainline_eval_5_1" nVehContrib="26" flow="1560.00" occupancy="11.69" speed="18.68" length="5.00" nVehEntered="26"/>
    <interval begin="180.00" end="240.00" id="mainline_eval_5_2" nVehContrib="35" flow="2100.00" occupancy="14.04" speed="20.84" length="5.00" nVehEntered="35"/>
    <interval begin="180.00" end="240.00" id="mainline_eval_6_0" nVehContrib="21" flow="1260.00" occupancy="9.75" speed="18.09" length="5.00" nVehEntered="21"/>
    <interval begin="180.00" end="240.00" id="mainline_eval_6_1" nVehContrib="25" flow="1500.00" occupancy="11.63" speed="18.14" length="5.00" nVehEntered="25"/>
    <interval begin="180.00" end="240.00" id="mainline_eval_6_2" nVehContrib="35" flow="2100.00" occupancy="13.85" speed="21.11" length="5.00" nVehEntered="35"/>
    <interval begin="240.00" end="300.00" id="mainline_eval_0_0" nVehContrib="18" flow="1080.00" occupancy="8.55" speed="17.73" length="5.00" nVehEntered="18"/>
    <interval begin="240.00" end="300.00" id="mainline_eval_0_1" nVehContrib="28" flow="1680.00" occupancy="11.61" speed="20.02" length="5.00" nVehEntered="28"/>
    <interval begin="240.00" end="300.00" id="mainline_eval_0_2" nVehContrib="32" flow="1920.00" occupancy="12.82" speed="20.85" length="5.00" nVehEntered="32"/>
    <interval begin="240.00" end="300.00" id="mainline_eval_1_0" nVehContrib="15" flow="900.00" occupancy="6.73" speed="18.59" length="5.00" nVehEntered="15"/>
    <interval begin="240.00" end="300.00" id="mainline_eval_1_1" nVehContrib="26" flow="1560.00" occupancy="11.22" speed="19.36" length="5.00" nVehEntered="26"/>
    <interval begin="240.00" end="300.00" id="mainline_eval_1_2" nVehContrib="26" flow="1560.00" occupancy="11.03" speed="19.73" length="5.00" nVehEntered="26"/>
    <interval begin="240.00" end="300.00" id="mainline_eval_2_0" nVehContrib="20" flow="1200.00" occupancy="9.14" speed="18.33" length="5.00" nVehEntered="20"/>
    <interval begin="240.00" end="300.00" id="mainline_eval_2_1" nVehContrib="27" flow="1620.00" occupancy="12.08" speed="18.74" length="5.00" nVehEntered="27"/>
    <interval begin="240.00" end="300.00" id="mainline_eval_2_2" nVehContrib="32" flow="1920.00" occupancy="12.38" speed="21.47" length="5.00" nVehEntered="31"/>
    <interval begin="240.00" end="300.00" id="mainline_eval_3_0" nVehContrib="8" flow="480.00" occupancy="5.17" speed="13.30" length="5.00" nVehEntered="8"/>
    <interval begin="240.00" end="300.00" id="mainline_eval_3_1" nVehContrib="26" flow="1560.00" occupancy="20.52" speed="11.82" length="5.00" nVehEntered="25"/>
    <interval begin="240.00" end="300.00" id="mainline_eval_3_2" nVehContrib="27" flow="1620.00" occupancy="14.55" speed="15.83" length="5.00" nVehEntered="27"/>
    <interval begin="240.00" end="300.00" id="mainline_eval_3_3" nVehContrib="33" flow="1980.00" occupancy="13.87" speed="20.12" length="5.00" nVehEntered="33"/>
    <interval begin="240.00" end="300.00" id="mainline_eval_4_0" nVehContrib="5" flow="300.00" occupancy="3.63" speed="12.04" length="5.00" nVehEntered="5"/>
    <interval begin="240.00" end="300.00" id="mainline_eval_4_1" nVehContrib="28" flow="1680.00" occupancy="23.50" speed="11.90" length="5.00" nVehEntered="27"/>
    <interval begin="240.00" end="300.00" id="mainline_eval_4_2" nVehContrib="31" flow="1860.00" occupancy="17.15" speed="16.10" length="5.00" nVehEntered="31"/>
    <interval begin="240.00" end="300.00" id="mainline_eval_4_3" nVehContrib="33" flow="1980.00" occupancy="14.62" speed="19.28" length="5.00" nVehEntered="33"/>
    <interval begin="240.00" end="300.00" id="mainline_eval_5_0" nVehContrib="30" flow="1800.00" occupancy="13.88" speed="18.10" length="5.00" nVehEntered="30"/>
    <interval begin="240.00" end="300.00" id="mainline_eval_5_1" nVehContrib="32" flow="1920.00" occupancy="14.45" speed="18.50" length="5.00" nVehEntered="32"/>
    <interval begin="240.00" end="300.00" id="mainline_eval_5_2" nVehContrib="34" flow="2040.00" occupancy="13.93" speed="20.42" length="5.00" nVehEntered="34"/>
    <interval begin="240.00" end="300.00" id="mainline_eval_6_0" nVehContrib="28" flow="1680.00" occupancy="12.83" speed="18.29" length="5.00" nVehEntered="28"/>
    <interval begin="240.00" end="300.00" id="mainline_eval_6_1" nVehContrib="33" flow="1980.00" occupancy="15.04" speed="18.33" length="5.00" nVehEntered="33"/>
    <interval begin="240.00" end="300.00" id="mainline_eval_6_2" nVehContrib="35" flow="2100.00" occupancy="14.00" speed="20.86" length="5.00" nVehEntered="35"/>
    <interval begin="300.00" end="360.00" id="mainline_eval_0_0" nVehContrib="17" flow="1020.00" occupancy="8.77" speed="16.30" length="5.00" nVehEntered="18"/>
    <interval begin="300.00" end="360.00" id="mainline_eval_0_1" nVehContrib="17" flow="1020.00" occupancy="12.22" speed="12.76" length="5.00" nVehEntered="16"/>
    <interval begin="300.00" end="360.00" id="mainline_eval_0_2" nVehContrib="38" flow="2280.00" occupancy="16.72" speed="18.94" length="5.00" nVehEntered="38"/>
    <interval begin="300.00" end="360.00" id="mainline_eval_1_0" nVehContrib="13" flow="780.00" occupancy="6.28" speed="17.35" length="5.00" nVehEntered="14"/>
    <interval begin="300.00" end="360.00" id="mainline_eval_1_1" nVehContrib="27" flow="1620.00" occupancy="13.69" speed="17.94" length="5.00" nVehEntered="27"/>
    <interval begin="300.00" end="360.00" id="mainline_eval_1_2" nVehContrib="32" flow="1920.00" occupancy="14.20" speed="19.35" length="5.00" nVehEntered="32"/>
    <interval begin="300.00" end="360.00" id="mainline_eval_2_0" nVehContrib="12" flow="720.00" occupancy="5.59" speed="18.10" length="5.00" nVehEntered="12"/>
    <interval begin="300.00" end="360.00" id="mainline_eval_2_1" nVehContrib="24" flow="1440.00" occupancy="10.48" speed="19.54" length="5.00" nVehEntered="25"/>
    <interval begin="300.00" end="360.00" id="mainline_eval_2_2" nVehContrib="26" flow="1560.00" occupancy="12.98" speed="19.23" length="5.00" nVehEntered="26"/>
    <interval begin="300.00" end="360.00" id="mainline_eval_3_0" nVehContrib="5" flow="300.00" occupancy="3.92" speed="10.76" length="5.00" nVehEntered="5"/>
    <interval begin="300.00" end="360.00" id="mainline_eval_3_1" nVehContrib="26" flow="1560.00" occupancy="15.84" speed="14.08" length="5.00" nVehEntered="26"/>
    <interval begin="300.00" end="360.00" id="mainline_eval_3_2" nVehContrib="29" flow="1740.00" occupancy="14.02" speed="17.94" length="5.00" nVehEntered="29"/>
    <interval begin="300.00" end="360.00" id="mainline_eval_3_3" nVehContrib="28" flow="1680.00" occupancy="13.63" speed="18.23" length="5.00" nVehEntered="29"/>
    <interval begin="300.00" end="360.00" id="mainline_eval_4_0" nVehContrib="2" flow="120.00" occupancy="1.78" speed="9.58" length="5.00" nVehEntered="2"/>
    <interval begin="300.00" end="360.00" id="mainline_eval_4_1" nVehContrib="28" flow="1680.00" occupancy="15.43" speed="15.36" length="5.00" nVehEntered="28"/>
    <interval begin="300.00" end="360.00" id="mainline_eval_4_2" nVehContrib="27" flow="1620.00" occupancy="12.33" speed="18.52" length="5.00" nVehEntered="27"/>
    <interval begin="300.00" end="360.00" id="mainline_eval_4_3" nVehContrib="32" flow="1920.00" occupancy="14.66" speed="19.03" length="5.00" nVehEntered="33"/>
    <interval begin="300.00" end="360.00" id="mainline_eval_5_0" nVehContrib="30" flow="1800.00" occupancy="13.99" speed="17.90" length="5.00" nVehEntered="30"/>
    <interval begin="300.00" end="360.00" id="mainline_eval_5_1" nVehContrib="33" flow="1980.00" occupancy="14.61" speed="18.97" length="5.00" nVehEntered="33"/>
    <interval begin="300.00" end="360.00" id="mainline_eval_5_2" nVehContrib="35" flow="2100.00" occupancy="13.61" speed="21.44" length="5.00" nVehEntered="35"/>
    <interval begin="300.00" end="360.00" id="mainline_eval_6_0" nVehContrib="31" flow="1860.00" occupancy="14.12" speed="18.39" length="5.00" nVehEntered="31"/>
    <interval begin="300.00" end="360.00" id="mainline_eval_6_1" nVehContrib="33" flow="1980.00" occupancy="14.97" speed="18.52" length="5.00" nVehEntered="33"/>
    <interval begin="300.00" end="360.00" id="mainline_eval_6_2" nVehContrib="35" flow="2100.00" occupancy="13.66" speed="21.36" length="5.00" nVehEntered="35"/>
    <interval begin="360.00" end="420.00" id="mainline_eval_0_0" nVehContrib="31" flow="1860.00" occupancy="16.70" speed="15.63" length="5.00" nVehEntered="31"/>
    <interval begin="360.00" end="420.00" id="mainline_eval_0_1" nVehContrib="12" flow="720.00" occupancy="9.52" speed="10.53" length="5.00" nVehEntered="12"/>
    <interval begin="360.00" end="420.00" id="mainline_eval_0_2" nVehContrib="34" flow="2040.00" occupancy="14.86" speed="19.07" length="5.00" nVehEntered="34"/>
    <interval begin="360.00" end="420.00" id="mainline_eval_1_0" nVehContrib="20" flow="1200.00" occupancy="11.60" speed="14.53" length="5.00" nVehEntered="20"/>
    <interval begin="360.00" end="420.00" id="mainline_eval_1_1" nVehContrib="32" flow="1920.00" occupancy="19.15" speed="14.23" length="5.00" nVehEntered="32"/>
    <interval begin="360.00" end="420.00" id="mainline_eval_1_2" nVehContrib="19" flow="1140.00" occupancy="13.72" speed="11.68" length="5.00" nVehEntered="19"/>
    <interval begin="360.00" end="420.00" id="mainline_eval_2_0" nVehContrib="10" flow="600.00" occupancy="5.41" speed="15.85" length="5.00" nVehEntered="11"/>
    <interval begin="360.00" end="420.00" id="mainline_eval_2_1" nVehContrib="29" flow="1740.00" occupancy="20.59" speed="13.91" length="5.00" nVehEntered="29"/>
    <interval begin="360.00" end="420.00" id="mainline_eval_2_2" nVehContrib="18" flow="1080.00" occupancy="13.06" speed="11.65" length="5.00" nVehEntered="21"/>
    <interval begin="360.00" end="420.00" id="mainline_eval_3_0" nVehContrib="12" flow="720.00" occupancy="8.75" speed="11.65" length="5.00" nVehEntered="13"/>
    <interval begin="360.00" end="420.00" id="mainline_eval_3_1" nVehContrib="14" flow="840.00" occupancy="21.50" speed="8.13" length="5.00" nVehEntered="15"/>
    <interval begin="360.00" end="420.00" id="mainline_eval_3_2" nVehContrib="26" flow="1560.00" occupancy="15.61" speed="14.98" length="5.00" nVehEntered="27"/>
    <interval begin="360.00" end="420.00" id="mainline_eval_3_3" nVehContrib="18" flow="1080.00" occupancy="11.08" speed="13.46" length="5.00" nVehEntered="17"/>
    <interval begin="360.00" end="420.00" id="mainline_eval_4_0" nVehContrib="2" flow="120.00" occupancy="1.58" speed="11.09" length="5.00" nVehEntered="3"/>
    <interval begin="360.00" end="420.00" id="mainline_eval_4_1" nVehContrib="19" flow="1140.00" occupancy="14.43" speed="12.65" length="5.00" nVehEntered="20"/>
    <interval begin="360.00" end="420.00" id="mainline_eval_4_2" nVehContrib="28" flow="1680.00" occupancy="16.32" speed="15.62" length="5.00" nVehEntered="28"/>
    <interval begin="360.00" end="420.00" id="mainline_eval_4_3" nVehContrib="19" flow="1140.00" occupancy="9.47" speed="16.68" length="5.00" nVehEntered="19"/>
    <interval begin="360.00" end="420.00" id="mainline_eval_5_0" nVehContrib="15" flow="900.00" occupancy="7.19" speed="17.66" length="5.00" nVehEntered="15"/>
    <interval begin="360.00" end="420.00" id="mainline_eval_5_1" nVehContrib="23" flow="1380.00" occupancy="10.03" speed="19.20" length="5.00" nVehEntered="23"/>
    <interval begin="360.00" end="420.00" id="mainline_eval_5_2" nVehContrib="24" flow="1440.00" occupancy="9.96" speed="20.16" length="5.00" nVehEntered="24"/>
    <interval begin="360.00" end="420.00" id="mainline_eval_6_0" nVehContrib="14" flow="840.00" occupancy="6.75" speed="17.39" length="5.00" nVehEntered="14"/>
    <interval begin="360.00" end="420.00" id="mainline_eval_6_1" nVehContrib="23" flow="1380.00" occupancy="10.92" speed="18.23" length="5.00" nVehEntered="24"/>
    <interval begin="360.00" end="420.00" id="mainline_eval_6_2" nVehContrib="25" flow="1500.00" occupancy="10.44" speed="20.02" length="5.00" nVehEntered="25"/>
    <interval begin="420.00" end="480.00" id="mainline_eval_0_0" nVehContrib="30" flow="1800.00" occupancy="17.46" speed="14.41" length="5.00" nVehEntered="30"/>
    <interval begin="420.00" end="480.00" id="mainline_eval_0_1" nVehContrib="10" flow="600.00" occupancy="7.90" speed="10.55" length="5.00" nVehEntered="10"/>
    <interval begin="420.00" end="480.00" id="mainline_eval_0_2" nVehContrib="35" flow="2100.00" occupancy="15.53" speed="18.79" length="5.00" nVehEntered="35"/>
    <interval begin="420.00" end="480.00" id="mainline_eval_1_0" nVehContrib="25" flow="1500.00" occupancy="13.73" speed="15.28" length="5.00" nVehEntered="25"/>
    <interval begin="420.00" end="480.00" id="mainline_eval_1_1" nVehContrib="29" flow="1740.00" occupancy="19.47" speed="12.75" length="5.00" nVehEntered="30"/>
    <interval begin="420.00" end="480.00" id="mainline_eval_1_2" nVehContrib="19" flow="1140.00" occupancy="16.60" speed="10.03" length="5.00" nVehEntered="19"/>
    <interval begin="420.00" end="480.00" id="mainline_eval_2_0" nVehContrib="24" flow="1440.00" occupancy="14.35" speed="15.15" length="5.00" nVehEntered="23"/>
    <interval begin="420.00" end="480.00" id="mainline_eval_2_1" nVehContrib="30" flow="1800.00" occupancy="19.60" speed="13.06" length="5.00" nVehEntered="31"/>
    <interval begin="420.00" end="480.00" id="mainline_eval_2_2" nVehContrib="19" flow="1140.00" occupancy="14.95" speed="11.10" length="5.00" nVehEntered="20"/>
    <interval begin="420.00" end="480.00" id="mainline_eval_3_0" nVehContrib="9" flow="540.00" occupancy="6.38" speed="11.88" length="5.00" nVehEntered="11"/>
    <interval begin="420.00" end="480.00" id="mainline_eval_3_1" nVehContrib="22" flow="1320.00" occupancy="31.45" speed="5.81" length="5.00" nVehEntered="22"/>
    <interval begin="420.00" end="480.00" id="mainline_eval_3_2" nVehContrib="30" flow="1800.00" occupancy="27.60" speed="10.24" length="5.00" nVehEntered="29"/>
    <interval begin="420.00" end="480.00" id="mainline_eval_3_3" nVehContrib="23" flow="1380.00" occupancy="16.69" speed="11.66" length="5.00" nVehEntered="23"/>
    <interval begin="420.00" end="480.00" id="mainline_eval_4_0" nVehContrib="6" flow="360.00" occupancy="4.83" speed="10.97" length="5.00" nVehEntered="6"/>
    <interval begin="420.00" end="480.00" id="mainline_eval_4_1" nVehContrib="20" flow="1200.00" occupancy="23.45" speed="9.54" length="5.00" nVehEntered="21"/>
    <interval begin="420.00" end="480.00" id="mainline_eval_4_2" nVehContrib="30" flow="1800.00" occupancy="25.68" speed="10.60" length="5.00" nVehEntered="30"/>
    <interval begin="420.00" end="480.00" id="mainline_eval_4_3" nVehContrib="28" flow="1680.00" occupancy="15.24" speed="15.23" length="5.00" nVehEntered="27"/>
    <interval begin="420.00" end="480.00" id="mainline_eval_5_0" nVehContrib="26" flow="1560.00" occupancy="11.49" speed="18.95" length="5.00" nVehEntered="26"/>
    <interval begin="420.00" end="480.00" id="mainline_eval_5_1" nVehContrib="31" flow="1860.00" occupancy="13.39" speed="19.39" length="5.00" nVehEntered="31"/>
    <interval begin="420.00" end="480.00" id="mainline_eval_5_2" nVehContrib="27" flow="1620.00" occupancy="11.33" speed="20.11" length="5.00" nVehEntered="28"/>