<?xml version="1.0" encoding="UTF-8"?>

<!-- generated on 02/11/19 21:34:58 by Eclipse SUMO Version 1.0.1
<configuration xmlns:xsi="http://www.w3.org/2001/XMLSchema-instance" xsi:noNamespaceSchemaLocation="http://sumo.dlr.de/xsd/sumoConfiguration.xsd">

    <input>
        <net-file value="./Project/ramp.net.xml"/>
        <route-files value="./Project/ramp.rou.xml"/>
        <additional-files value="./Project/ramp.add.xml"/>
    </input>

    <time>
        <begin value="0"/>
    </time>

    <report>
        <verbose value="true"/>
        <no-step-log value="true"/>
    </report>

    <traci_server>
        <remote-port value="55037"/>
    </traci_server>

    <random_number>
        <seed value="1114505689"/>
    </random_number>

    <gui_only>
        <quit-on-end value="true"/>
        <start value="true"/>
    </gui_only>

</configuration>
-->

<detector xmlns:xsi="http://www.w3.org/2001/XMLSchema-instance" xsi:noNamespaceSchemaLocation="http://sumo.dlr.de/xsd/det_e1_file.xsd">
    <interval begin="0.00" end="60.00" id="mainline_eval_0_0" nVehContrib="2" flow="120.00" occupancy="0.68" speed="24.40" length="5.00" nVehEntered="2"/>
    <interval begin="0.00" end="60.00" id="mainline_eval_0_1" nVehContrib="0" flow="0.00" occupancy="0.00" speed="-1.00" length="-1.00" nVehEntered="0"/>
    <interval begin="0.00" end="60.00" id="mainline_eval_0_2" nVehContrib="0" flow="0.00" occupancy="0.00" speed="-1.00" length="-1.00" nVehEntered="0"/>
    <interval begin="0.00" end="60.00" id="mainline_eval_1_0" nVehContrib="0" flow="0.00" occupancy="0.00" speed="-1.00" length="-1.00" nVehEntered="0"/>
    <interval begin="0.00" end="60.00" id="mainline_eval_1_1" nVehContrib="0" flow="0.00" occupancy="0.00" speed="-1.00" length="-1.00" nVehEntered="0"/>
    <interval begin="0.00" end="60.00" id="mainline_eval_1_2" nVehContrib="0" flow="0.00" occupancy="0.00" speed="-1.00" length="-1.00" nVehEntered="0"/>
    <interval begin="0.00" end="60.00" id="mainline_eval_2_0" nVehContrib="0" flow="0.00" occupancy="0.00" speed="-1.00" length="-1.00" nVehEntered="0"/>
    <interval begin="0.00" end="60.00" id="mainline_eval_2_1" nVehContrib="0" flow="0.00" occupancy="0.00" speed="-1.00" length="-1.00" nVehEntered="0"/>
    <interval begin="0.00" end="60.00" id="mainline_eval_2_2" nVehContrib="0" flow="0.00" occupancy="0.00" speed="-1.00" length="-1.00" nVehEntered="0"/>
    <interval begin="0.00" end="60.00" id="mainline_eval_3_0" nVehContrib="0" flow="0.00" occupancy="0.00" speed="-1.00" length="-1.00" nVehEntered="0"/>
    <interval begin="0.00" end="60.00" id="mainline_eval_3_1" nVehContrib="0" flow="0.00" occupancy="0.00" speed="-1.00" length="-1.00" nVehEntered="0"/>
    <interval begin="0.00" end="60.00" id="mainline_eval_3_2" nVehContrib="0" flow="0.00" occupancy="0.00" speed="-1.00" length="-1.00" nVehEntered="0"/>
    <interval begin="0.00" end="60.00" id="mainline_eval_3_3" nVehContrib="0" flow="0.00" occupancy="0.00" speed="-1.00" length="-1.00" nVehEntered="0"/>
    <interval begin="0.00" end="60.00" id="mainline_eval_4_0" nVehContrib="0" flow="0.00" occupancy="0.00" speed="-1.00" length="-1.00" nVehEntered="0"/>
    <interval begin="0.00" end="60.00" id="mainline_eval_4_1" nVehContrib="0" flow="0.00" occupancy="0.00" speed="-1.00" length="-1.00" nVehEntered="0"/>
    <interval begin="0.00" end="60.00" id="mainline_eval_4_2" nVehContrib="0" flow="0.00" occupancy="0.00" speed="-1.00" length="-1.00" nVehEntered="0"/>
    <interval begin="0.00" end="60.00" id="mainline_eval_4_3" nVehContrib="0" flow="0.00" occupancy="0.00" speed="-1.00" length="-1.00" nVehEntered="0"/>
    <interval begin="0.00" end="60.00" id="mainline_eval_5_0" nVehContrib="0" flow="0.00" occupancy="0.00" speed="-1.00" length="-1.00" nVehEntered="0"/>
    <interval begin="0.00" end="60.00" id="mainline_eval_5_1" nVehContrib="0" flow="0.00" occupancy="0.00" speed="-1.00" length="-1.00" nVehEntered="0"/>
    <interval begin="0.00" end="60.00" id="mainline_eval_5_2" nVehContrib="0" flow="0.00" occupancy="0.00" speed="-1.00" length="-1.00" nVehEntered="0"/>
    <interval begin="0.00" end="60.00" id="mainline_eval_6_0" nVehContrib="0" flow="0.00" occupancy="0.00" speed="-1.00" length="-1.00" nVehEntered="0"/>
    <interval begin="0.00" end="60.00" id="mainline_eval_6_1" nVehContrib="0" flow="0.00" occupancy="0.00" speed="-1.00" length="-1.00" nVehEntered="0"/>
    <interval begin="0.00" end="60.00" id="mainline_eval_6_2" nVehContrib="0" flow="0.00" occupancy="0.00" speed="-1.00" length="-1.00" nVehEntered="0"/>
    <interval begin="60.00" end="120.00" id="mainline_eval_0_0" nVehContrib="13" flow="780.00" occupancy="5.62" speed="19.34" length="5.00" nVehEntered="13"/>
    <interval begin="60.00" end="120.00" id="mainline_eval_0_1" nVehContrib="13" flow="780.00" occupancy="5.29" speed="20.66" length="5.00" nVehEntered="13"/>
    <interval begin="60.00" end="120.00" id="mainline_eval_0_2" nVehContrib="19" flow="1140.00" occupancy="7.07" speed="22.53" length="5.00" nVehEntered="19"/>
    <interval begin="60.00" end="120.00" id="mainline_eval_1_0" nVehContrib="8" flow="480.00" occupancy="3.27" speed="20.67" length="5.00" nVehEntered="8"/>
    <interval begin="60.00" end="120.00" id="mainline_eval_1_1" nVehContrib="8" flow="480.00" occupancy="3.06" speed="21.98" length="5.00" nVehEntered="8"/>
    <interval begin="60.00" end="120.00" id="mainline_eval_1_2" nVehContrib="7" flow="420.00" occupancy="2.55" speed="23.08" length="5.00" nVehEntered="7"/>
    <interval begin="60.00" end="120.00" id="mainline_eval_2_0" nVehContrib="6" flow="360.00" occupancy="2.20" speed="22.86" length="5.00" nVehEntered="6"/>
    <interval begin="60.00" end="120.00" id="mainline_eval_2_1" nVehContrib="4" flow="240.00" occupancy="1.46" speed="22.86" length="5.00" nVehEntered="4"/>
    <interval begin="60.00" end="120.00" id="mainline_eval_2_2" nVehContrib="2" flow="120.00" occupancy="0.67" speed="25.05" length="5.00" nVehEntered="2"/>
    <interval begin="60.00" end="120.00" id="mainline_eval_3_0" nVehContrib="0" flow="0.00" occupancy="0.00" speed="-1.00" length="-1.00" nVehEntered="0"/>
    <interval begin="60.00" end="120.00" id="mainline_eval_3_1" nVehContrib="5" flow="300.00" occupancy="1.78" speed="23.46" length="5.00" nVehEntered="5"/>
    <interval begin="60.00" end="120.00" id="mainline_eval_3_2" nVehContrib="3" flow="180.00" occupancy="1.03" speed="24.19" length="5.00" nVehEntered="3"/>
    <interval begin="60.00" end="120.00" id="mainline_eval_3_3" nVehContrib="0" flow="0.00" occupancy="0.00" speed="-1.00" length="-1.00" nVehEntered="0"/>
    <interval begin="60.00" end="120.00" id="mainline_eval_4_0" nVehContrib="0" flow="0.00" occupancy="0.00" speed="-1.00" length="-1.00" nVehEntered="0"/>
    <interval begin="60.00" end="120.00" id="mainline_eval_4_1" nVehContrib="5" flow="300.00" occupancy="1.78" speed="23.47" length="5.00" nVehEntered="5"/>
    <interval begin="60.00" end="120.00" id="mainline_eval_4_2" nVehContrib="2" flow="120.00" occupancy="0.68" speed="24.60" length="5.00" nVehEntered="2"/>
    <interval begin="60.00" end="120.00" id="mainline_eval_4_3" nVehContrib="0" flow="0.00" occupancy="0.00" speed="-1.00" length="-1.00" nVehEntered="0"/>
    <interval begin="60.00" end="120.00" id="mainline_eval_5_0" nVehContrib="3" flow="180.00" occupancy="1.02" speed="24.47" length="5.00" nVehEntered="3"/>
    <interval begin="60.00" end="120.00" id="mainline_eval_5_1" nVehContrib="1" flow="60.00" occupancy="0.33" speed="25.58" length="5.00" nVehEntered="1"/>
    <interval begin="60.00" end="120.00" id="mainline_eval_5_2" nVehContrib="0" flow="0.00" occupancy="0.00" speed="-1.00" length="-1.00" nVehEntered="0"/>
    <interval begin="60.00" end="120.00" id="mainline_eval_6_0" nVehContrib="2" flow="120.00" occupancy="0.67" speed="24.85" length="5.00" nVehEntered="2"/>
    <interval begin="60.00" end="120.00" id="mainline_eval_6_1" nVehContrib="0" flow="0.00" occupancy="0.00" speed="-1.00" length="-1.00" nVehEntered="0"/>
    <interval begin="60.00" end="120.00" id="mainline_eval_6_2" nVehContrib="0" flow="0.00" occupancy="0.00" speed="-1.00" length="-1.00" nVehEntered="0"/>
    <interval begin="120.00" end="180.00" id="mainline_eval_0_0" nVehContrib="17" flow="1020.00" occupancy="7.77" speed="18.33" length="5.00" nVehEntered="17"/>
    <interval begin="120.00" end="180.00" id="mainline_eval_0_1" nVehContrib="22" flow="1320.00" occupancy="9.57" speed="19.36" length="5.00" nVehEntered="22"/>
    <interval begin="120.00" end="180.00" id="mainline_eval_0_2" nVehContrib="34" flow="2040.00" occupancy="13.61" speed="20.89" length="5.00" nVehEntered="34"/>
    <interval begin="120.00" end="180.00" id="mainline_eval_1_0" nVehContrib="13" flow="780.00" occupancy="5.85" speed="18.58" length="5.00" nVehEntered="13"/>
    <interval begin="120.00" end="180.00" id="mainline_eval_1_1" nVehContrib="29" flow="1740.00" occupancy="12.33" speed="19.67" length="5.00" nVehEntered="29"/>
    <interval begin="120.00" end="180.00" id="mainline_eval_1_2" nVehContrib="37" flow="2220.00" occupancy="14.33" speed="21.58" length="5.00" nVehEntered="37"/>
    <interval begin="120.00" end="180.00" id="mainline_eval_2_0" nVehContrib="14" flow="840.00" occupancy="7.95" speed="17.36" length="5.00" nVehEntered="14"/>
    <interval begin="120.00" end="180.00" id="mainline_eval_2_1" nVehContrib="21" flow="1260.00" occupancy="9.14" speed="19.22" length="5.00" nVehEntered="22"/>
    <interval begin="120.00" end="180.00" id="mainline_eval_2_2" nVehContrib="29" flow="1740.00" occupancy="11.41" speed="21.23" length="5.00" nVehEntered="29"/>
    <interval begin="120.00" end="180.00" id="mainline_eval_3_0" nVehContrib="2" flow="120.00" occupancy="1.28" speed="13.05" length="5.00" nVehEntered="2"/>
    <interval begin="120.00" end="180.00" id="mainline_eval_3_1" nVehContrib="15" flow="900.00" occupancy="7.97" speed="16.11" length="5.00" nVehEntered="15"/>
    <interval begin="120.00" end="180.00" id="mainline_eval_3_2" nVehContrib="21" flow="1260.00" occupancy="9.40" speed="19.29" length="5.00" nVehEntered="22"/>
    <interval begin="120.00" end="180.00" id="mainline_eval_3_3" nVehContrib="23" flow="1380.00" occupancy="9.23" speed="20.84" length="5.00" nVehEntered="23"/>
    <interval begin="120.00" end="180.00" id="mainline_eval_4_0" nVehContrib="1" flow="60.00" occupancy="0.53" speed="15.68" length="5.00" nVehEntered="1"/>
    <interval begin="120.00" end="180.00" id="mainline_eval_4_1" nVehContrib="15" flow="900.00" occupancy="7.13" speed="17.64" length="5.00" nVehEntered="15"/>
    <interval begin="120.00" end="180.00" id="mainline_eval_4_2" nVehContrib="21" flow="1260.00" occupancy="9.41" speed="19.26" length="5.00" nVehEntered="22"/>
    <interval begin="120.00" end="180.00" id="mainline_eval_4_3" nVehContrib="21" flow="1260.00" occupancy="8.60" speed="20.49" length="5.00" nVehEntered="22"/>
    <interval begin="120.00" end="180.00" id="mainline_eval_5_0" nVehContrib="13" flow="780.00" occupancy="5.65" speed="19.27" length="5.00" nVehEntered="13"/>
    <interval begin="120.00" end="180.00" id="mainline_eval_5_1" nVehContrib="18" flow="1080.00" occupancy="7.63" speed="19.93" length="5.00" nVehEntered="18"/>
    <interval begin="120.00" end="180.00" id="mainline_eval_5_2" nVehContrib="14" flow="840.00" occupancy="5.78" speed="20.62" length="5.00" nVehEntered="15"/>
    <interval begin="120.00" end="180.00" id="mainline_eval_6_0" nVehContrib="14" flow="840.00" occupancy="6.15" speed="19.35" length="5.00" nVehEntered="14"/>
    <interval begin="120.00" end="180.00" id="mainline_eval_6_1" nVehContrib="15" flow="900.00" occupancy="6.67" speed="19.44" length="5.00" nVehEntered="15"/>
    <interval begin="120.00" end="180.00" id="mainline_eval_6_2" nVehContrib="11" flow="660.00" occupancy="4.40" speed="20.98" length="5.00" nVehEntered="11"/>
    <interval begin="180.00" end="240.00" id="mainline_eval_0_0" nVehContrib="15" flow="900.00" occupancy="6.87" speed="18.28" length="5.00" nVehEntered="15"/>
    <interval begin="180.00" end="240.00" id="mainline_eval_0_1" nVehContrib="27" flow="1620.00" occupancy="12.15" speed="19.17" length="5.00" nVehEntered="28"/>
    <interval begin="180.00" end="240.00" id="mainline_eval_0_2" nVehContrib="38" flow="2280.00" occupancy="15.66" speed="20.34" length="5.00" nVehEntered="38"/>
    <interval begin="180.00" end="240.00" id="mainline_eval_1_0" nVehContrib="17" flow="1020.00" occupancy="7.79" speed="18.26" length="5.00" nVehEntered="17"/>
    <interval begin="180.00" end="240.00" id="mainline_eval_1_1" nVehContrib="25" flow="1500.00" occupancy="10.69" speed="19.52" length="5.00" nVehEntered="25"/>
    <interval begin="180.00" end="240.00" id="mainline_eval_1_2" nVehContrib="33" flow="1980.00" occupancy="13.60" speed="20.30" length="5.00" nVehEntered="34"/>
    <interval begin="180.00" end="240.00" id="mainline_eval_2_0" nVehContrib="13" flow="780.00" occupancy="6.08" speed="17.90" length="5.00" nVehEntered="13"/>
    <interval begin="180.00" end="240.00" id="mainline_eval_2_1" nVehContrib="26" flow="1560.00" occupancy="11.80" speed="18.51" length="5.00" nVehEntered="26"/>
    <interval begin="180.00" end="240.00" id="mainline_eval_2_2" nVehContrib="31" flow="1860.00" occupancy="12.71" speed="20.52" length="5.00" nVehEntered="32"/>
    <interval begin="180.00" end="240.00" id="mainline_eval_3_0" nVehContrib="1" flow="60.00" occupancy="0.66" speed="12.72" length="5.00" nVehEntered="1"/>
    <interval begin="180.00" end="240.00" id="mainline_eval_3_1" nVehContrib="23" flow="1380.00" occupancy="13.32" speed="14.86" length="5.00" nVehEntered="23"/>
    <interval begin="180.00" end="240.00" id="mainline_eval_3_2" nVehContrib="24" flow="1440.00" occupancy="11.02" speed="17.95" length="5.00" nVehEntered="23"/>
    <interval begin="180.00" end="240.00" id="mainline_eval_3_3" nVehContrib="32" flow="1920.00" occupancy="12.99" speed="20.62" length="5.00" nVehEntered="32"/>
    <interval begin="180.00" end="240.00" id="mainline_eval_4_0" nVehContrib="1" flow="60.00" occupancy="0.55" speed="15.19" length="5.00" nVehEntered="1"/>
    <interval begin="180.00" end="240.00" id="mainline_eval_4_1" nVehContrib="24" flow="1440.00" occupancy="11.93" speed="16.86" length="5.00" nVehEntered="24"/>
    <interval begin="180.00" end="240.00" id="mainline_eval_4_2" nVehContrib="23" flow="1380.00" occupancy="10.74" speed="17.83" length="5.00" nVehEntered="22"/>
    <interval begin="180.00" end="240.00" id="mainline_eval_4_3" nVehContrib="32" flow="1920.00" occupancy="13.25" speed="20.21" length="5.00" nVehEntered="31"/>
    <interval begin="180.00" end="240.00" id="mainline_eval_5_0" nVehContrib="23" flow="1380.00" occupancy="10.20" speed="18.84" length="5.00" nVehEntered="23"/>
    <interval begin="180.00" end="240.00" id="mainline_eval_5_1" nVehContrib="25" flow="1500.00" occupancy="10.72" speed="19.52" length="5.00" nVehEntered="25"/>
    <interval begin="180.00" end="240.00" id="mainline_eval_5_2" nVehContrib="35" flow="2100.00" occupancy="13.77" speed="21.07" length="5.00" nVehEntered="34"/>
    <interval begin="180.00" end="240.00" id="mainline_eval_6_0" nVehContrib="23" flow="1380.00" occupancy="10.69" speed="18.02" length="5.00" nVehEntered="23"/>
    <interval begin="180.00" end="240.00" id="mainline_eval_6_1" nVehContrib="27" flow="1620.00" occupancy="11.70" speed="19.34" length="5.00" nVehEntered="27"/>
    <interval begin="180.00" end="240.00" id="mainline_eval_6_2" nVehContrib="35" flow="2100.00" occupancy="13.51" speed="21.59" length="5.00" nVehEntered="35"/>
    <interval begin="240.00" end="300.00" id="mainline_eval_0_0" nVehContrib="22" flow="1320.00" occupancy="10.20" speed="18.15" length="5.00" nVehEntered="22"/>
    <interval begin="240.00" end="300.00" id="mainline_eval_0_1" nVehContrib="27" flow="1620.00" occupancy="11.53" speed="18.99" length="5.00" nVehEntered="26"/>
    <interval begin="240.00" end="300.00" id="mainline_eval_0_2" nVehContrib="37" flow="2220.00" occupancy="15.79" speed="19.79" length="5.00" nVehEntered="38"/>
    <interval begin="240.00" end="300.00" id="mainline_eval_1_0" nVehContrib="14" flow="840.00" occupancy="6.91" speed="17.82" length="5.00" nVehEntered="15"/>
    <interval begin="240.00" end="300.00" id="mainline_eval_1_1" nVehContrib="24" flow="1440.00" occupancy="11.09" speed="18.06" length="5.00" nVehEntered="24"/>
    <interval begin="240.00" end="300.00" id="mainline_eval_1_2" nVehContrib="37" flow="2220.00" occupancy="15.22" speed="20.62" length="5.00" nVehEntered="37"/>
    <interval begin="240.00" end="300.00" id="mainline_eval_2_0" nVehContrib="14" flow="840.00" occupancy="6.41" speed="18.25" length="5.00" nVehEntered="14"/>
    <interval begin="240.00" end="300.00" id="mainline_eval_2_1" nVehContrib="24" flow="1440.00" occupancy="10.51" speed="19.11" length="5.00" nVehEntered="24"/>
    <interval begin="240.00" end="300.00" id="mainline_eval_2_2" nVehContrib="38" flow="2280.00" occupancy="15.55" speed="20.36" length="5.00" nVehEntered="37"/>
    <interval begin="240.00" end="300.00" id="mainline_eval_3_0" nVehContrib="7" flow="420.00" occupancy="5.82" speed="10.42" length="5.00" nVehEntered="8"/>
    <interval begin="240.00" end="300.00" id="mainline_eval_3_1" nVehContrib="26" flow="1560.00" occupancy="18.60" speed="12.94" length="5.00" nVehEntered="26"/>
    <interval begin="240.00" end="300.00" id="mainline_eval_3_2" nVehContrib="29" flow="1740.00" occupancy="14.33" speed="17.01" length="5.00" nVehEntered="29"/>
    <interval begin="240.00" end="300.00" id="mainline_eval_3_3" nVehContrib="39" flow="2340.00" occupancy="17.22" speed="18.92" length="5.00" nVehEntered="39"/>
    <interval begin="240.00" end="300.00" id="mainline_eval_4_0" nVehContrib="3" flow="180.00" occupancy="2.20" speed="11.42" length="5.00" nVehEntered="3"/>
    <interval begin="240.00" end="300.00" id="mainline_eval_4_1" nVehContrib="24" flow="1440.00" occupancy="15.80" speed="13.80" length="5.00" nVehEntered="24"/>
    <interval begin="240.00" end="300.00" id="mainline_eval_4_2" nVehContrib="32" flow="1920.00" occupancy="15.38" speed="17.42" length="5.00" nVehEntered="32"/>
    <interval begin="240.00" end="300.00" id="mainline_eval_4_3" nVehContrib="38" flow="2280.00" occupancy="16.77" speed="18.93" length="5.00" nVehEntered="38"/>
    <interval begin="240.00" end="300.00" id="mainline_eval_5_0" nVehContrib="25" flow="1500.00" occupancy="11.78" speed="17.87" length="5.00" nVehEntered="25"/>
    <interval begin="240.00" end="300.00" id="mainline_eval_5_1" nVehContrib="29" flow="1740.00" occupancy="12.95" speed="18.73" length="5.00" nVehEntered="29"/>
    <interval begin="240.00" end="300.00" id="mainline_eval_5_2" nVehContrib="35" flow="2100.00" occupancy="15.22" speed="19.23" length="5.00" nVehEntered="35"/>
    <interval begin="240.00" end="300.00" id="mainline_eval_6_0" nVehContrib="26" flow="1560.00" occupancy="12.46" speed="17.54" length="5.00" nVehEntered="26"/>
    <interval begin="240.00" end="300.00" id="mainline_eval_6_1" nVehContrib="27" flow="1620.00" occupancy="11.98" speed="18.88" length="5.00" nVehEntered="27"/>
    <interval begin="240.00" end="300.00" id="mainline_eval_6_2" nVehContrib="37" flow="2220.00" occupancy="15.23" speed="20.35" length="5.00" nVehEntered="37"/>
    <interval begin="300.00" end="360.00" id="mainline_eval_0_0" nVehContrib="12" flow="720.00" occupancy="5.53" speed="18.18" length="5.00" nVehEntered="12"/>
    <interval begin="300.00" end="360.00" id="mainline_eval_0_1" nVehContrib="29" flow="1740.00" occupancy="12.19" speed="19.86" length="5.00" nVehEntered="29"/>
    <interval begin="300.00" end="360.00" id="mainline_eval_0_2" nVehContrib="36" flow="2160.00" occupancy="14.33" speed="20.73" length="5.00" nVehEntered="35"/>
    <interval begin="300.00" end="360.00" id="mainline_eval_1_0" nVehContrib="15" flow="900.00" occupancy="7.13" speed="18.02" length="5.00" nVehEntered="15"/>
    <interval begin="300.00" end="360.00" id="mainline_eval_1_1" nVehContrib="28" flow="1680.00" occupancy="11.83" speed="19.75" length="5.00" nVehEntered="28"/>
    <interval begin="300.00" end="360.00" id="mainline_eval_1_2" nVehContrib="39" flow="2340.00" occupancy="15.91" speed="20.15" length="5.00" nVehEntered="38"/>
    <interval begin="300.00" end="360.00" id="mainline_eval_2_0" nVehContrib="19" flow="1140.00" occupancy="8.83" speed="18.00" length="5.00" nVehEntered="19"/>
    <interval begin="300.00" end="360.00" id="mainline_eval_2_1" nVehContrib="30" flow="1800.00" occupancy="13.58" speed="18.44" length="5.00" nVehEntered="30"/>
    <interval begin="300.00" end="360.00" id="mainline_eval_2_2" nVehContrib="38" flow="2280.00" occupancy="16.69" speed="19.06" length="5.00" nVehEntered="39"/>
    <interval begin="300.00" end="360.00" id="mainline_eval_3_0" nVehContrib="1" flow="60.00" occupancy="0.70" speed="11.92" length="5.00" nVehEntered="1"/>
    <interval begin="300.00" end="360.00" id="mainline_eval_3_1" nVehContrib="22" flow="1320.00" occupancy="12.13" speed="16.54" length="5.00" nVehEntered="23"/>
    <interval begin="300.00" end="360.00" id="mainline_eval_3_2" nVehContrib="29" flow="1740.00" occupancy="13.02" speed="18.69" length="5.00" nVehEntered="29"/>
    <interval begin="300.00" end="360.00" id="mainline_eval_3_3" nVehContrib="36" flow="2160.00" occupancy="15.45" speed="19.75" length="5.00" nVehEntered="37"/>
    <interval begin="300.00" end="360.00" id="mainline_eval_4_0" nVehContrib="0" flow="0.00" occupancy="0.00" speed="-1.00" length="-1.00" nVehEntered="0"/>
    <interval begin="300.00" end="360.00" id="mainline_eval_4_1" nVehContrib="24" flow="1440.00" occupancy="12.88" speed="16.06" length="5.00" nVehEntered="24"/>
    <interval begin="300.00" end="360.00" id="mainline_eval_4_2" nVehContrib="30" flow="1800.00" occupancy="14.05" speed="18.05" length="5.00" nVehEntered="30"/>
    <interval begin="300.00" end="360.00" id="mainline_eval_4_3" nVehContrib="37" flow="2220.00" occupancy="15.66" speed="19.73" length="5.00" nVehEntered="37"/>
    <interval begin="300.00" end="360.00" id="mainline_eval_5_0" nVehContrib="26" flow="1560.00" occupancy="11.84" speed="18.32" length="5.00" nVehEntered="26"/>
    <interval begin="300.00" end="360.00" id="mainline_eval_5_1" nVehContrib="31" flow="1860.00" occupancy="13.88" speed="18.63" length="5.00" nVehEntered="31"/>
    <interval begin="300.00" end="360.00" id="mainline_eval_5_2" nVehContrib="38" flow="2280.00" occupancy="16.08" speed="19.70" length="5.00" nVehEntered="38"/>
    <interval begin="300.00" end="360.00" id="mainline_eval_6_0" nVehContrib="25" flow="1500.00" occupancy="11.68" speed="17.99" length="5.00" nVehEntered="25"/>
    <interval begin="300.00" end="360.00" id="mainline_eval_6_1" nVehContrib="29" flow="1740.00" occupancy="12.88" speed="18.83" length="5.00" nVehEntered="29"/>
    <interval begin="300.00" end="360.00" id="mainline_eval_6_2" nVehContrib="35" flow="2100.00" occupancy="14.80" speed="19.75" length="5.00" nVehEntered="35"/>
    <interval begin="360.00" end="420.00" id="mainline_eval_0_0" nVehContrib="19" flow="1140.00" occupancy="9.02" speed="17.64" length="5.00" nVehEntered="19"/>
    <interval begin="360.00" end="420.00" id="mainline_eval_0_1" nVehContrib="28" flow="1680.00" occupancy="12.54" speed="18.69" length="5.00" nVehEntered="28"/>
    <interval begin="360.00" end="420.00" id="mainline_eval_0_2" nVehContrib="34" flow="2040.00" occupancy="14.75" speed="19.32" length="5.00" nVehEntered="34"/>
    <interval begin="360.00" end="420.00" id="mainline_eval_1_0" nVehContrib="23" flow="1380.00" occupancy="10.36" speed="17.75" length="5.00" nVehEntered="22"/>
    <interval begin="360.00" end="420.00" id="mainline_eval_1_1" nVehContrib="27" flow="1620.00" occupancy="11.77" speed="19.81" length="5.00" nVehEntered="28"/>
    <interval begin="360.00" end="420.00" id="mainline_eval_1_2" nVehContrib="31" flow="1860.00" occupancy="11.90" speed="22.42" length="5.00" nVehEntered="32"/>
    <interval begin="360.00" end="420.00" id="mainline_eval_2_0" nVehContrib="16" flow="960.00" occupancy="7.48" speed="17.96" length="5.00" nVehEntered="16"/>
    <interval begin="360.00" end="420.00" id="mainline_eval_2_1" nVehContrib="23" flow="1380.00" occupancy="9.59" speed="20.02" length="5.00" nVehEntered="23"/>
    <interval begin="360.00" end="420.00" id="mainline_eval_2_2" nVehContrib="34" flow="2040.00" occupancy="13.10" speed="21.62" length="5.00" nVehEntered="33"/>
    <interval begin="360.00" end="420.00" id="mainline_eval_3_0" nVehContrib="2" flow="120.00" occupancy="1.23" speed="13.59" length="5.00" nVehEntered="3"/>
    <interval begin="360.00" end="420.00" id="mainline_eval_3_1" nVehContrib="18" flow="1080.00" occupancy="11.80" speed="14.58" length="5.00" nVehEntered="18"/>
    <interval begin="360.00" end="420.00" id="mainline_eval_3_2" nVehContrib="31" flow="1860.00" occupancy="14.51" speed="18.26" length="5.00" nVehEntered="32"/>
    <interval begin="360.00" end="420.00" id="mainline_eval_3_3" nVehContrib="38" flow="2280.00" occupancy="14.63" speed="21.34" length="5.00" nVehEntered="37"/>
    <interval begin="360.00" end="420.00" id="mainline_eval_4_0" nVehContrib="0" flow="0.00" occupancy="0.00" speed="-1.00" length="-1.00" nVehEntered="0"/>
    <interval begin="360.00" end="420.00" id="mainline_eval_4_1" nVehContrib="21" flow="1260.00" occupancy="10.80" speed="16.41" length="5.00" nVehEntered="21"/>
    <interval begin="360.00" end="420.00" id="mainline_eval_4_2" nVehContrib="33" flow="1980.00" occupancy="14.74" speed="18.74" length="5.00" nVehEntered="33"/>
    <interval begin="360.00" end="420.00" id="mainline_eval_4_3" nVehContrib="37" flow="2220.00" occupancy="14.80" speed="21.20" length="5.00" nVehEntered="38"/>
    <interval begin="360.00" end="420.00" id="mainline_eval_5_0" nVehContrib="24" flow="1440.00" occupancy="11.42" speed="17.58" length="5.00" nVehEntered="24"/>
    <interval begin="360.00" end="420.00" id="mainline_eval_5_1" nVehContrib="32" flow="1920.00" occupancy="14.40" speed="18.67" length="5.00" nVehEntered="32"/>
    <interval begin="360.00" end="420.00" id="mainline_eval_5_2" nVehContrib="39" flow="2340.00" occupancy="16.23" speed="20.11" length="5.00" nVehEntered="39"/>
    <interval begin="360.00" end="420.00" id="mainline_eval_6_0" nVehContrib="23" flow="1380.00" occupancy="11.12" speed="17.32" length="5.00" nVehEntered="23"/>
    <interval begin="360.00" end="420.00" id="mainline_eval_6_1" nVehContrib="33" flow="1980.00" occupancy="14.06" speed="19.67" length="5.00" nVehEntered="33"/>
    <interval begin="360.00" end="420.00" id="mainline_eval_6_2" nVehContrib="41" flow="2460.00" occupancy="16.53" speed="20.72" length="5.00" nVehEntered="41"/>
    <interval begin="420.00" end="480.00" id="mainline_eval_0_0" nVehContrib="13" flow="780.00" occupancy="6.08" speed="17.91" length="5.00" nVehEntered="13"/>
    <interval begin="420.00" end="480.00" id="mainline_eval_0_1" nVehContrib="29" flow="1740.00" occupancy="12.27" speed="19.75" length="5.00" nVehEntered="29"/>
    <interval begin="420.00" end="480.00" id="mainline_eval_0_2" nVehContrib="30" flow="1800.00" occupancy="11.81" speed="21.23" length="5.00" nVehEntered="30"/>
    <interval begin="420.00" end="480.00" id="mainline_eval_1_0" nVehContrib="18" flow="1080.00" occupancy="8.05" speed="18.72" length="5.00" nVehEntered="18"/>
    <interval begin="420.00" end="480.00" id="mainline_eval_1_1" nVehContrib="28" flow="1680.00" occupancy="11.59" speed="19.96" length="5.00" nVehEntered="28"/>
    <interval begin="420.00" end="480.00" id="mainline_eval_1_2" nVehContrib="33" flow="1980.00" occupancy="12.54" speed="21.43" length="5.00" nVehEntered="32"/>
    <interval begin="420.00" end="480.00" id="mainline_eval_2_0" nVehContrib="24" flow="1440.00" occupancy="10.81" speed="18.63" length="5.00" nVehEntered="24"/>
    <interval begin="420.00" end="480.00" id="mainline_eval_2_1" nVehContrib="29" flow="1740.00" occupancy="12.08" speed="20.03" length="5.00" nVehEntered="29"/>
    <interval begin="420.00" end="480.00" id="mainline_eval_2_2" nVehContrib="33" flow="1980.00" occupancy="13.01" speed="21.20" length="5.00" nVehEntered="33"/>
    <interval begin="420.00" end="480.00" id="mainline_eval_3_0" nVehContrib="19" flow="1140.00" occupancy="13.57" speed="11.82" length="5.00" nVehEntered="20"/>
    <interval begin="420.00" end="480.00" id="mainline_eval_3_1" nVehContrib="19" flow="1140.00" occupancy="24.01" speed="9.54" length="5.00" nVehEntered="19"/>
    <interval begin="420.00" end="480.00" id="mainline_eval_3_2" nVehContrib="28" flow="1680.00" occupancy="20.04" speed="14.70" length="5.00" nVehEntered="27"/>
    <interval begin="420.00" end="480.00" id="mainline_eval_3_3" nVehContrib="34" flow="2040.00" occupancy="14.25" speed="20.34" length="5.00" nVehEntered="34"/>
    <interval begin="420.00" end="480.00" id="mainline_eval_4_0" nVehContrib="8" flow="480.00" occupancy="11.67" speed="7.86" length="5.00" nVehEntered="9"/>
    <interval begin="420.00" end="480.00" id="mainline_eval_4_1" nVehContrib="20" flow="1200.00" occupancy="27.73" speed="11.09" length="5.00" nVehEntered="20"/>
    <interval begin="420.00" end="480.00" id="mainline_eval_4_2" nVehContrib="28" flow="1680.00" occupancy="14.71" speed="16.39" length="5.00" nVehEntered="28"/>
    <interval begin="420.00" end="480.00" id="mainline_eval_4_3" nVehContrib="36" flow="2160.00" occupancy="14.14" speed="21.03" length="5.00" nVehEntered="35"/>
    <interval begin="420.00" end="480.00" id="mainline_eval_5_0" nVehContrib="20" flow="1200.00" occupancy="9.86" speed="17.19" length="5.00" nVehEntered="20"/>
    <interval begin="420.00" end="480.00" id="mainline_eval_5_1" nVehContrib="29" flow="1740.00" occupancy="12.72" speed="19.18" length="5.00" nVehEntered="30"/>
    <interval begin="420.00" end="480.00" id="mainline_eval_5_2" nVehContrib="33" flow="1980.00" occupancy="12.63" speed="21.81" length="5.00" nVehEntered="33"/>