<?xml version="1.0" encoding="UTF-8"?>

<!-- generated on 02/22/19 15:59:31 by Eclipse SUMO Version 1.0.1
<configuration xmlns:xsi="http://www.w3.org/2001/XMLSchema-instance" xsi:noNamespaceSchemaLocation="http://sumo.dlr.de/xsd/sumoConfiguration.xsd">

    <input>
        <net-file value="./project/ramp.net.xml"/>
        <route-files value="./project/ramp.rou.xml"/>
        <additional-files value="./project/ramp.add.xml"/>
    </input>

    <time>
        <begin value="0"/>
    </time>

    <report>
        <verbose value="true"/>
        <no-step-log value="true"/>
    </report>

    <traci_server>
        <remote-port value="58431"/>
    </traci_server>

    <random_number>
        <seed value="979597159"/>
    </random_number>

    <gui_only>
        <quit-on-end value="true"/>
        <start value="true"/>
    </gui_only>

</configuration>
-->

<detector xmlns:xsi="http://www.w3.org/2001/XMLSchema-instance" xsi:noNamespaceSchemaLocation="http://sumo.dlr.de/xsd/det_e1_file.xsd">
    <interval begin="0.00" end="60.00" id="ramp_eval_0_0" nVehContrib="2" flow="120.00" occupancy="1.66" speed="10.05" length="5.00" nVehEntered="2"/>
    <interval begin="0.00" end="60.00" id="ramp_eval_2_0" nVehContrib="0" flow="0.00" occupancy="0.00" speed="-1.00" length="-1.00" nVehEntered="0"/>
   <interval begin="0.00" end="60.00" id="mainline_up_0_0" sampledSeconds="344.43" nVehEntered="18" nVehLeft="8" nVehSeen="18" meanSpeed="18.62" meanTimeLoss="2.12" meanOccupancy="4.13" maxOccupancy="8.57" meanMaxJamLengthInVehicles="0.00" meanMaxJamLengthInMeters="0.00" maxJamLengthInVehicles="0" maxJamLengthInMeters="0.00" jamLengthInVehiclesSum="0" jamLengthInMetersSum="0.00" meanHaltingDuration="0.00" maxHaltingDuration="0.00" haltingDurationSum="0.00" meanIntervalHaltingDuration="0.00" maxIntervalHaltingDuration="0.00" intervalHaltingDurationSum="0.00" startedHalts="0.00" meanVehicleNumber="5.90" maxVehicleNumber="13" />
   <interval begin="0.00" end="60.00" id="mainline_up_1_0" sampledSeconds="390.93" nVehEntered="28" nVehLeft="15" nVehSeen="28" meanSpeed="19.63" meanTimeLoss="1.68" meanOccupancy="4.71" maxOccupancy="10.00" meanMaxJamLengthInVehicles="0.00" meanMaxJamLengthInMeters="0.00" maxJamLengthInVehicles="0" maxJamLengthInMeters="0.00" jamLengthInVehiclesSum="0" jamLengthInMetersSum="0.00" meanHaltingDuration="0.00" maxHaltingDuration="0.00" haltingDurationSum="0.00" meanIntervalHaltingDuration="0.00" maxIntervalHaltingDuration="0.00" intervalHaltingDurationSum="0.00" startedHalts="0.00" meanVehicleNumber="6.72" maxVehicleNumber="14" />
   <interval begin="0.00" end="60.00" id="mainline_up_2_0" sampledSeconds="382.44" nVehEntered="24" nVehLeft="10" nVehSeen="24" meanSpeed="21.07" meanTimeLoss="1.61" meanOccupancy="4.57" maxOccupancy="10.00" meanMaxJamLengthInVehicles="0.00" meanMaxJamLengthInMeters="0.00" maxJamLengthInVehicles="0" maxJamLengthInMeters="0.00" jamLengthInVehiclesSum="0" jamLengthInMetersSum="0.00" meanHaltingDuration="0.00" maxHaltingDuration="0.00" haltingDurationSum="0.00" meanIntervalHaltingDuration="0.00" maxIntervalHaltingDuration="0.00" intervalHaltingDurationSum="0.00" startedHalts="0.00" meanVehicleNumber="6.53" maxVehicleNumber="15" />
   <interval begin="0.00" end="60.00" id="mainline_up_0_1" sampledSeconds="37.75" nVehEntered="4" nVehLeft="0" nVehSeen="4" meanSpeed="19.86" meanTimeLoss="0.26" meanOccupancy="0.47" maxOccupancy="2.86" meanMaxJamLengthInVehicles="0.00" meanMaxJamLengthInMeters="0.00" maxJamLengthInVehicles="0" maxJamLengthInMeters="0.00" jamLengthInVehiclesSum="0" jamLengthInMetersSum="0.00" meanHaltingDuration="0.00" maxHaltingDuration="0.00" haltingDurationSum="0.00" meanIntervalHaltingDuration="0.00" maxIntervalHaltingDuration="0.00" intervalHaltingDurationSum="0.00" startedHalts="0.00" meanVehicleNumber="0.67" maxVehicleNumber="4" />
   <interval begin="0.00" end="60.00" id="mainline_up_1_1" sampledSeconds="35.55" nVehEntered="4" nVehLeft="1" nVehSeen="4" meanSpeed="21.77" meanTimeLoss="0.23" meanOccupancy="0.44" maxOccupancy="2.86" meanMaxJamLengthInVehicles="0.00" meanMaxJamLengthInMeters="0.00" maxJamLengthInVehicles="0" maxJamLengthInMeters="0.00" jamLengthInVehiclesSum="0" jamLengthInMetersSum="0.00" meanHaltingDuration="0.00" maxHaltingDuration="0.00" haltingDurationSum="0.00" meanIntervalHaltingDuration="0.00" maxIntervalHaltingDuration="0.00" intervalHaltingDurationSum="0.00" startedHalts="0.00" meanVehicleNumber="0.63" maxVehicleNumber="4" />
   <interval begin="0.00" end="60.00" id="mainline_up_2_1" sampledSeconds="33.28" nVehEntered="5" nVehLeft="0" nVehSeen="5" meanSpeed="23.15" meanTimeLoss="0.33" meanOccupancy="0.42" maxOccupancy="3.57" meanMaxJamLengthInVehicles="0.00" meanMaxJamLengthInMeters="0.00" maxJamLengthInVehicles="0" maxJamLengthInMeters="0.00" jamLengthInVehiclesSum="0" jamLengthInMetersSum="0.00" meanHaltingDuration="0.00" maxHaltingDuration="0.00" haltingDurationSum="0.00" meanIntervalHaltingDuration="0.00" maxIntervalHaltingDuration="0.00" intervalHaltingDurationSum="0.00" startedHalts="0.00" meanVehicleNumber="0.58" maxVehicleNumber="5" />
   <interval begin="0.00" end="60.00" id="mainline_up_0_2" sampledSeconds="0.00" nVehEntered="0" nVehLeft="0" nVehSeen="0" meanSpeed="-1.00" meanTimeLoss="-1.00" meanOccupancy="0.00" maxOccupancy="0.00" meanMaxJamLengthInVehicles="0.00" meanMaxJamLengthInMeters="0.00" maxJamLengthInVehicles="0" maxJamLengthInMeters="0.00" jamLengthInVehiclesSum="0" jamLengthInMetersSum="0.00" meanHaltingDuration="0.00" maxHaltingDuration="0.00" haltingDurationSum="0.00" meanIntervalHaltingDuration="0.00" maxIntervalHaltingDuration="0.00" intervalHaltingDurationSum="0.00" startedHalts="0.00" meanVehicleNumber="0.00" maxVehicleNumber="0" />
   <interval begin="0.00" end="60.00" id="mainline_up_1_2" sampledSeconds="0.00" nVehEntered="0" nVehLeft="0" nVehSeen="0" meanSpeed="-1.00" meanTimeLoss="-1.00" meanOccupancy="0.00" maxOccupancy="0.00" meanMaxJamLengthInVehicles="0.00" meanMaxJamLengthInMeters="0.00" maxJamLengthInVehicles="0" maxJamLengthInMeters="0.00" jamLengthInVehiclesSum="0" jamLengthInMetersSum="0.00" meanHaltingDuration="0.00" maxHaltingDuration="0.00" haltingDurationSum="0.00" meanIntervalHaltingDuration="0.00" maxIntervalHaltingDuration="0.00" intervalHaltingDurationSum="0.00" startedHalts="0.00" meanVehicleNumber="0.00" maxVehicleNumber="0" />
   <interval begin="0.00" end="60.00" id="mainline_up_2_2" sampledSeconds="0.00" nVehEntered="0" nVehLeft="0" nVehSeen="0" meanSpeed="-1.00" meanTimeLoss="-1.00" meanOccupancy="0.00" maxOccupancy="0.00" meanMaxJamLengthInVehicles="0.00" meanMaxJamLengthInMeters="0.00" maxJamLengthInVehicles="0" maxJamLengthInMeters="0.00" jamLengthInVehiclesSum="0" jamLengthInMetersSum="0.00" meanHaltingDuration="0.00" maxHaltingDuration="0.00" haltingDurationSum="0.00" meanIntervalHaltingDuration="0.00" maxIntervalHaltingDuration="0.00" intervalHaltingDurationSum="0.00" startedHalts="0.00" meanVehicleNumber="0.00" maxVehicleNumber="0" />
    <interval begin="60.00" end="120.00" id="ramp_eval_0_0" nVehContrib="18" flow="1080.00" occupancy="16.48" speed="9.13" length="5.00" nVehEntered="18"/>
    <interval begin="60.00" end="120.00" id="ramp_eval_2_0" nVehContrib="0" flow="0.00" occupancy="0.00" speed="-1.00" length="-1.00" nVehEntered="0"/>
   <interval begin="60.00" end="120.00" id="mainline_up_0_0" sampledSeconds="830.48" nVehEntered="33" nVehLeft="28" nVehSeen="43" meanSpeed="17.54" meanTimeLoss="2.93" meanOccupancy="9.85" maxOccupancy="12.14" meanMaxJamLengthInVehicles="0.00" meanMaxJamLengthInMeters="0.00" maxJamLengthInVehicles="0" maxJamLengthInMeters="0.00" jamLengthInVehiclesSum="0" jamLengthInMetersSum="0.00" meanHaltingDuration="0.00" maxHaltingDuration="0.00" haltingDurationSum="0.00" meanIntervalHaltingDuration="0.00" maxIntervalHaltingDuration="0.00" intervalHaltingDurationSum="0.00" startedHalts="0.00" meanVehicleNumber="14.20" maxVehicleNumber="17" />
   <interval begin="60.00" end="120.00" id="mainline_up_1_0" sampledSeconds="905.19" nVehEntered="40" nVehLeft="39" nVehSeen="53" meanSpeed="18.61" meanTimeLoss="2.26" meanOccupancy="10.73" maxOccupancy="12.86" meanMaxJamLengthInVehicles="0.00" meanMaxJamLengthInMeters="0.00" maxJamLengthInVehicles="0" maxJamLengthInMeters="0.00" jamLengthInVehiclesSum="0" jamLengthInMetersSum="0.00" meanHaltingDuration="0.00" maxHaltingDuration="0.00" haltingDurationSum="0.00" meanIntervalHaltingDuration="0.00" maxIntervalHaltingDuration="0.00" intervalHaltingDurationSum="0.00" startedHalts="0.00" meanVehicleNumber="15.50" maxVehicleNumber="18" />
   <interval begin="60.00" end="120.00" id="mainline_up_2_0" sampledSeconds="978.96" nVehEntered="36" nVehLeft="31" nVehSeen="50" meanSpeed="20.32" meanTimeLoss="2.31" meanOccupancy="11.54" maxOccupancy="15.00" meanMaxJamLengthInVehicles="0.00" meanMaxJamLengthInMeters="0.00" maxJamLengthInVehicles="0" maxJamLengthInMeters="0.00" jamLengthInVehiclesSum="0" jamLengthInMetersSum="0.00" meanHaltingDuration="0.00" maxHaltingDuration="0.00" haltingDurationSum="0.00" meanIntervalHaltingDuration="0.00" maxIntervalHaltingDuration="0.00" intervalHaltingDurationSum="0.00" startedHalts="0.00" meanVehicleNumber="16.73" maxVehicleNumber="22" />
   <interval begin="60.00" end="120.00" id="mainline_up_0_1" sampledSeconds="527.91" nVehEntered="23" nVehLeft="15" nVehSeen="27" meanSpeed="19.55" meanTimeLoss="0.79" meanOccupancy="6.26" maxOccupancy="8.57" meanMaxJamLengthInVehicles="0.00" meanMaxJamLengthInMeters="0.00" maxJamLengthInVehicles="0" maxJamLengthInMeters="0.00" jamLengthInVehiclesSum="0" jamLengthInMetersSum="0.00" meanHaltingDuration="0.00" maxHaltingDuration="0.00" haltingDurationSum="0.00" meanIntervalHaltingDuration="0.00" maxIntervalHaltingDuration="0.00" intervalHaltingDurationSum="0.00" startedHalts="0.00" meanVehicleNumber="9.03" maxVehicleNumber="12" />
   <interval begin="60.00" end="120.00" id="mainline_up_1_1" sampledSeconds="590.37" nVehEntered="29" nVehLeft="18" nVehSeen="32" meanSpeed="21.05" meanTimeLoss="0.87" meanOccupancy="7.01" maxOccupancy="10.00" meanMaxJamLengthInVehicles="0.00" meanMaxJamLengthInMeters="0.00" maxJamLengthInVehicles="0" maxJamLengthInMeters="0.00" jamLengthInVehiclesSum="0" jamLengthInMetersSum="0.00" meanHaltingDuration="0.00" maxHaltingDuration="0.00" haltingDurationSum="0.00" meanIntervalHaltingDuration="0.00" maxIntervalHaltingDuration="0.00" intervalHaltingDurationSum="0.00" startedHalts="0.00" meanVehicleNumber="10.17" maxVehicleNumber="14" />
   <interval begin="60.00" end="120.00" id="mainline_up_2_1" sampledSeconds="746.09" nVehEntered="31" nVehLeft="22" nVehSeen="36" meanSpeed="22.12" meanTimeLoss="1.45" meanOccupancy="8.90" maxOccupancy="12.42" meanMaxJamLengthInVehicles="0.00" meanMaxJamLengthInMeters="0.00" maxJamLengthInVehicles="0" maxJamLengthInMeters="0.00" jamLengthInVehiclesSum="0" jamLengthInMetersSum="0.00" meanHaltingDuration="0.00" maxHaltingDuration="0.00" haltingDurationSum="0.00" meanIntervalHaltingDuration="0.00" maxIntervalHaltingDuration="0.00" intervalHaltingDurationSum="0.00" startedHalts="0.00" meanVehicleNumber="12.82" maxVehicleNumber="18" />
   <interval begin="60.00" end="120.00" id="mainline_up_0_2" sampledSeconds="312.81" nVehEntered="15" nVehLeft="3" nVehSeen="15" meanSpeed="20.42" meanTimeLoss="0.59" meanOccupancy="3.30" maxOccupancy="8.17" meanMaxJamLengthInVehicles="0.00" meanMaxJamLengthInMeters="0.00" maxJamLengthInVehicles="0" maxJamLengthInMeters="0.00" jamLengthInVehiclesSum="0" jamLengthInMetersSum="0.00" meanHaltingDuration="0.00" maxHaltingDuration="0.00" haltingDurationSum="0.00" meanIntervalHaltingDuration="0.00" maxIntervalHaltingDuration="0.00" intervalHaltingDurationSum="0.00" startedHalts="0.00" meanVehicleNumber="5.33" maxVehicleNumber="13" />
   <interval begin="60.00" end="120.00" id="mainline_up_1_2" sampledSeconds="228.72" nVehEntered="15" nVehLeft="6" nVehSeen="15" meanSpeed="22.21" meanTimeLoss="0.43" meanOccupancy="2.44" maxOccupancy="6.28" meanMaxJamLengthInVehicles="0.00" meanMaxJamLengthInMeters="0.00" maxJamLengthInVehicles="0" maxJamLengthInMeters="0.00" jamLengthInVehiclesSum="0" jamLengthInMetersSum="0.00" meanHaltingDuration="0.00" maxHaltingDuration="0.00" haltingDurationSum="0.00" meanIntervalHaltingDuration="0.00" maxIntervalHaltingDuration="0.00" intervalHaltingDurationSum="0.00" startedHalts="0.00" meanVehicleNumber="3.95" maxVehicleNumber="10" />
   <interval begin="60.00" end="120.00" id="mainline_up_2_2" sampledSeconds="313.05" nVehEntered="17" nVehLeft="3" nVehSeen="17" meanSpeed="23.03" meanTimeLoss="0.73" meanOccupancy="3.33" maxOccupancy="8.41" meanMaxJamLengthInVehicles="0.00" meanMaxJamLengthInMeters="0.00" maxJamLengthInVehicles="0" maxJamLengthInMeters="0.00" jamLengthInVehiclesSum="0" jamLengthInMetersSum="0.00" meanHaltingDuration="0.00" maxHaltingDuration="0.00" haltingDurationSum="0.00" meanIntervalHaltingDuration="0.00" maxIntervalHaltingDuration="0.00" intervalHaltingDurationSum="0.00" startedHalts="0.00" meanVehicleNumber="5.37" maxVehicleNumber="14" />
    <interval begin="120.00" end="180.00" id="ramp_eval_0_0" nVehContrib="22" flow="1320.00" occupancy="19.80" speed="9.31" length="5.00" nVehEntered="22"/>
    <interval begin="120.00" end="180.00" id="ramp_eval_2_0" nVehContrib="11" flow="660.00" occupancy="10.99" speed="8.79" length="5.00" nVehEntered="12"/>
   <interval begin="120.00" end="180.00" id="mainline_up_0_0" sampledSeconds="914.56" nVehEntered="33" nVehLeft="34" nVehSeen="48" meanSpeed="17.87" meanTimeLoss="2.82" meanOccupancy="10.83" maxOccupancy="12.54" meanMaxJamLengthInVehicles="0.00" meanMaxJamLengthInMeters="0.00" maxJamLengthInVehicles="0" maxJamLengthInMeters="0.00" jamLengthInVehiclesSum="0" jamLengthInMetersSum="0.00" meanHaltingDuration="0.00" maxHaltingDuration="0.00" haltingDurationSum="0.00" meanIntervalHaltingDuration="0.00" maxIntervalHaltingDuration="0.00" intervalHaltingDurationSum="0.00" startedHalts="0.00" meanVehicleNumber="15.67" maxVehicleNumber="19" />
   <interval begin="120.00" end="180.00" id="mainline_up_1_0" sampledSeconds="936.01" nVehEntered="41" nVehLeft="41" nVehSeen="55" meanSpeed="18.65" meanTimeLoss="2.55" meanOccupancy="11.06" maxOccupancy="13.57" meanMaxJamLengthInVehicles="0.00" meanMaxJamLengthInMeters="0.00" maxJamLengthInVehicles="0" maxJamLengthInMeters="0.00" jamLengthInVehiclesSum="0" jamLengthInMetersSum="0.00" meanHaltingDuration="0.00" maxHaltingDuration="0.00" haltingDurationSum="0.00" meanIntervalHaltingDuration="0.00" maxIntervalHaltingDuration="0.00" intervalHaltingDurationSum="0.00" startedHalts="0.00" meanVehicleNumber="16.03" maxVehicleNumber="19" />
   <interval begin="120.00" end="180.00" id="mainline_up_2_0" sampledSeconds="974.79" nVehEntered="34" nVehLeft="34" nVehSeen="53" meanSpeed="20.26" meanTimeLoss="1.87" meanOccupancy="11.45" maxOccupancy="14.29" meanMaxJamLengthInVehicles="0.00" meanMaxJamLengthInMeters="0.00" maxJamLengthInVehicles="0" maxJamLengthInMeters="0.00" jamLengthInVehiclesSum="0" jamLengthInMetersSum="0.00" meanHaltingDuration="0.00" maxHaltingDuration="0.00" haltingDurationSum="0.00" meanIntervalHaltingDuration="0.00" maxIntervalHaltingDuration="0.00" intervalHaltingDurationSum="0.00" startedHalts="0.00" meanVehicleNumber="16.67" maxVehicleNumber="20" />
   <interval begin="120.00" end="180.00" id="mainline_up_0_1" sampledSeconds="745.45" nVehEntered="24" nVehLeft="25" nVehSeen="36" meanSpeed="17.88" meanTimeLoss="2.05" meanOccupancy="8.82" maxOccupancy="11.43" meanMaxJamLengthInVehicles="0.00" meanMaxJamLengthInMeters="0.00" maxJamLengthInVehicles="0" maxJamLengthInMeters="0.00" jamLengthInVehiclesSum="0" jamLengthInMetersSum="0.00" meanHaltingDuration="0.00" maxHaltingDuration="0.00" haltingDurationSum="0.00" meanIntervalHaltingDuration="0.00" maxIntervalHaltingDuration="0.00" intervalHaltingDurationSum="0.00" startedHalts="0.00" meanVehicleNumber="12.78" maxVehicleNumber="16" />
   <interval begin="120.00" end="180.00" id="mainline_up_1_1" sampledSeconds="899.03" nVehEntered="36" nVehLeft="33" nVehSeen="50" meanSpeed="19.17" meanTimeLoss="2.13" meanOccupancy="10.63" maxOccupancy="13.57" meanMaxJamLengthInVehicles="0.00" meanMaxJamLengthInMeters="0.00" maxJamLengthInVehicles="0" maxJamLengthInMeters="0.00" jamLengthInVehiclesSum="0" jamLengthInMetersSum="0.00" meanHaltingDuration="0.00" maxHaltingDuration="0.00" haltingDurationSum="0.00" meanIntervalHaltingDuration="0.00" maxIntervalHaltingDuration="0.00" intervalHaltingDurationSum="0.00" startedHalts="0.00" meanVehicleNumber="15.42" maxVehicleNumber="20" />
   <interval begin="120.00" end="180.00" id="mainline_up_2_1" sampledSeconds="1128.01" nVehEntered="39" nVehLeft="33" nVehSeen="53" meanSpeed="20.73" meanTimeLoss="1.87" meanOccupancy="13.36" maxOccupancy="15.00" meanMaxJamLengthInVehicles="0.00" meanMaxJamLengthInMeters="0.00" maxJamLengthInVehicles="0" maxJamLengthInMeters="0.00" jamLengthInVehiclesSum="0" jamLengthInMetersSum="0.00" meanHaltingDuration="0.00" maxHaltingDuration="0.00" haltingDurationSum="0.00" meanIntervalHaltingDuration="0.00" maxIntervalHaltingDuration="0.00" intervalHaltingDurationSum="0.00" startedHalts="0.00" meanVehicleNumber="19.32" maxVehicleNumber="22" />
   <interval begin="120.00" end="180.00" id="mainline_up_0_2" sampledSeconds="722.44" nVehEntered="23" nVehLeft="21" nVehSeen="35" meanSpeed="18.49" meanTimeLoss="1.50" meanOccupancy="7.54" maxOccupancy="8.79" meanMaxJamLengthInVehicles="0.00" meanMaxJamLengthInMeters="0.00" maxJamLengthInVehicles="0" maxJamLengthInMeters="0.00" jamLengthInVehiclesSum="0" jamLengthInMetersSum="0.00" meanHaltingDuration="0.00" maxHaltingDuration="0.00" haltingDurationSum="0.00" meanIntervalHaltingDuration="0.00" maxIntervalHaltingDuration="0.00" intervalHaltingDurationSum="0.00" startedHalts="0.00" meanVehicleNumber="12.32" maxVehicleNumber="14" />
   <interval begin="120.00" end="180.00" id="mainline_up_1_2" sampledSeconds="708.56" nVehEntered="32" nVehLeft="24" nVehSeen="41" meanSpeed="19.82" meanTimeLoss="1.53" meanOccupancy="7.39" maxOccupancy="10.40" meanMaxJamLengthInVehicles="0.00" meanMaxJamLengthInMeters="0.00" maxJamLengthInVehicles="0" maxJamLengthInMeters="0.00" jamLengthInVehiclesSum="0" jamLengthInMetersSum="0.00" meanHaltingDuration="0.00" maxHaltingDuration="0.00" haltingDurationSum="0.00" meanIntervalHaltingDuration="0.00" maxIntervalHaltingDuration="0.00" intervalHaltingDurationSum="0.00" startedHalts="0.00" meanVehicleNumber="12.13" maxVehicleNumber="17" />
   <interval begin="120.00" end="180.00" id="mainline_up_2_2" sampledSeconds="969.14" nVehEntered="32" nVehLeft="28" nVehSeen="46" meanSpeed="21.96" meanTimeLoss="1.63" meanOccupancy="10.10" maxOccupancy="13.19" meanMaxJamLengthInVehicles="0.00" meanMaxJamLengthInMeters="0.00" maxJamLengthInVehicles="0" maxJamLengthInMeters="0.00" jamLengthInVehiclesSum="0" jamLengthInMetersSum="0.00" meanHaltingDuration="0.00" maxHaltingDuration="0.00" haltingDurationSum="0.00" meanIntervalHaltingDuration="0.00" maxIntervalHaltingDuration="0.00" intervalHaltingDurationSum="0.00" startedHalts="0.00" meanVehicleNumber="16.62" maxVehicleNumber="21" />
    <interval begin="180.00" end="240.00" id="ramp_eval_0_0" nVehContrib="20" flow="1200.00" occupancy="17.42" speed="9.64" length="5.00" nVehEntered="20"/>
    <interval begin="180.00" end="240.00" id="ramp_eval_2_0" nVehContrib="22" flow="1320.00" occupancy="20.73" speed="8.67" length="5.00" nVehEntered="21"/>
   <interval begin="180.00" end="240.00" id="mainline_up_0_0" sampledSeconds="857.14" nVehEntered="27" nVehLeft="27" nVehSeen="41" meanSpeed="17.11" meanTimeLoss="3.59" meanOccupancy="10.15" maxOccupancy="11.43" meanMaxJamLengthInVehicles="0.00" meanMaxJamLengthInMeters="0.00" maxJamLengthInVehicles="0" maxJamLengthInMeters="0.00" jamLengthInVehiclesSum="0" jamLengthInMetersSum="0.00" meanHaltingDuration="0.00" maxHaltingDuration="0.00" haltingDurationSum="0.00" meanIntervalHaltingDuration="0.00" maxIntervalHaltingDuration="0.00" intervalHaltingDurationSum="0.00" startedHalts="0.00" meanVehicleNumber="14.63" maxVehicleNumber="17" />
   <interval begin="180.00" end="240.00" id="mainline_up_1_0" sampledSeconds="988.88" nVehEntered="37" nVehLeft="32" nVehSeen="51" meanSpeed="17.64" meanTimeLoss="3.90" meanOccupancy="11.67" maxOccupancy="13.57" meanMaxJamLengthInVehicles="0.00" meanMaxJamLengthInMeters="0.00" maxJamLengthInVehicles="0" maxJamLengthInMeters="0.00" jamLengthInVehiclesSum="0" jamLengthInMetersSum="0.00" meanHaltingDuration="0.00" maxHaltingDuration="0.00" haltingDurationSum="0.00" meanIntervalHaltingDuration="0.00" maxIntervalHaltingDuration="0.00" intervalHaltingDurationSum="0.00" startedHalts="0.00" meanVehicleNumber="16.90" maxVehicleNumber="20" />
   <interval begin="180.00" end="240.00" id="mainline_up_2_0" sampledSeconds="1137.77" nVehEntered="35" nVehLeft="35" nVehSeen="54" meanSpeed="19.03" meanTimeLoss="3.50" meanOccupancy="13.43" maxOccupancy="15.00" meanMaxJamLengthInVehicles="0.00" meanMaxJamLengthInMeters="0.00" maxJamLengthInVehicles="0" maxJamLengthInMeters="0.00" jamLengthInVehiclesSum="0" jamLengthInMetersSum="0.00" meanHaltingDuration="0.00" maxHaltingDuration="0.00" haltingDurationSum="0.00" meanIntervalHaltingDuration="0.00" maxIntervalHaltingDuration="0.00" intervalHaltingDurationSum="0.00" startedHalts="0.00" meanVehicleNumber="19.50" maxVehicleNumber="22" />
   <interval begin="180.00" end="240.00" id="mainline_up_0_1" sampledSeconds="649.51" nVehEntered="20" nVehLeft="17" nVehSeen="31" meanSpeed="18.48" meanTimeLoss="1.85" meanOccupancy="7.68" maxOccupancy="10.00" meanMaxJamLengthInVehicles="0.00" meanMaxJamLengthInMeters="0.00" maxJamLengthInVehicles="0" maxJamLengthInMeters="0.00" jamLengthInVehiclesSum="0" jamLengthInMetersSum="0.00" meanHaltingDuration="0.00" maxHaltingDuration="0.00" haltingDurationSum="0.00" meanIntervalHaltingDuration="0.00" maxIntervalHaltingDuration="0.00" intervalHaltingDurationSum="0.00" startedHalts="0.00" meanVehicleNumber="11.07" maxVehicleNumber="15" />
   <interval begin="180.00" end="240.00" id="mainline_up_1_1" sampledSeconds="888.95" nVehEntered="29" nVehLeft="29" nVehSeen="46" meanSpeed="19.08" meanTimeLoss="2.23" meanOccupancy="10.53" maxOccupancy="12.86" meanMaxJamLengthInVehicles="0.00" meanMaxJamLengthInMeters="0.00" maxJamLengthInVehicles="0" maxJamLengthInMeters="0.00" jamLengthInVehiclesSum="0" jamLengthInMetersSum="0.00" meanHaltingDuration="0.00" maxHaltingDuration="0.00" haltingDurationSum="0.00" meanIntervalHaltingDuration="0.00" maxIntervalHaltingDuration="0.00" intervalHaltingDurationSum="0.00" startedHalts="0.00" meanVehicleNumber="15.25" maxVehicleNumber="18" />
   <interval begin="180.00" end="240.00" id="mainline_up_2_1" sampledSeconds="1170.18" nVehEntered="35" nVehLeft="35" nVehSeen="55" meanSpeed="19.95" meanTimeLoss="3.03" meanOccupancy="13.81" maxOccupancy="15.00" meanMaxJamLengthInVehicles="0.00" meanMaxJamLengthInMeters="0.00" maxJamLengthInVehicles="0" maxJamLengthInMeters="0.00" jamLengthInVehiclesSum="0" jamLengthInMetersSum="0.00" meanHaltingDuration="0.00" maxHaltingDuration="0.00" haltingDurationSum="0.00" meanIntervalHaltingDuration="0.00" maxIntervalHaltingDuration="0.00" intervalHaltingDurationSum="0.00" startedHalts="0.00" meanVehicleNumber="20.03" maxVehicleNumber="22" />
   <interval begin="180.00" end="240.00" id="mainline_up_0_2" sampledSeconds="722.31" nVehEntered="17" nVehLeft="22" nVehSeen="31" meanSpeed="17.71" meanTimeLoss="2.46" meanOccupancy="7.54" maxOccupancy="9.42" meanMaxJamLengthInVehicles="0.00" meanMaxJamLengthInMeters="0.00" maxJamLengthInVehicles="0" maxJamLengthInMeters="0.00" jamLengthInVehiclesSum="0" jamLengthInMetersSum="0.00" meanHaltingDuration="0.00" maxHaltingDuration="0.00" haltingDurationSum="0.00" meanIntervalHaltingDuration="0.00" maxIntervalHaltingDuration="0.00" intervalHaltingDurationSum="0.00" startedHalts="0.00" meanVehicleNumber="12.25" maxVehicleNumber="15" />
   <interval begin="180.00" end="240.00" id="mainline_up_1_2" sampledSeconds="1189.97" nVehEntered="35" nVehLeft="38" nVehSeen="52" meanSpeed="18.74" meanTimeLoss="2.76" meanOccupancy="12.34" maxOccupancy="13.82" meanMaxJamLengthInVehicles="0.00" meanMaxJamLengthInMeters="0.00" maxJamLengthInVehicles="0" maxJamLengthInMeters="0.00" jamLengthInVehiclesSum="0" jamLengthInMetersSum="0.00" meanHaltingDuration="0.00" maxHaltingDuration="0.00" haltingDurationSum="0.00" meanIntervalHaltingDuration="0.00" maxIntervalHaltingDuration="0.00" intervalHaltingDurationSum="0.00" startedHalts="0.00" meanVehicleNumber="20.22" maxVehicleNumber="23" />
   <interval begin="180.00" end="240.00" id="mainline_up_2_2" sampledSeconds="1380.57" nVehEntered="38" nVehLeft="36" nVehSeen="56" meanSpeed="20.26" meanTimeLoss="2.96" meanOccupancy="14.35" maxOccupancy="16.31" meanMaxJamLengthInVehicles="0.00" meanMaxJamLengthInMeters="0.00" maxJamLengthInVehicles="0" maxJamLengthInMeters="0.00" jamLengthInVehiclesSum="0" jamLengthInMetersSum="0.00" meanHaltingDuration="0.00" maxHaltingDuration="0.00" haltingDurationSum="0.00" meanIntervalHaltingDuration="0.00" maxIntervalHaltingDuration="0.00" intervalHaltingDurationSum="0.00" startedHalts="0.00" meanVehicleNumber="23.53" maxVehicleNumber="27" />
    <interval begin="240.00" end="300.00" id="ramp_eval_0_0" nVehContrib="18" flow="1080.00" occupancy="18.05" speed="8.38" length="5.00" nVehEntered="18"/>
    <interval begin="240.00" end="300.00" id="ramp_eval_2_0" nVehContrib="17" flow="1020.00" occupancy="15.29" speed="9.31" length="5.00" nVehEntered="17"/>
   <interval begin="240.00" end="300.00" id="mainline_up_0_0" sampledSeconds="811.03" nVehEntered="28" nVehLeft="30" nVehSeen="42" meanSpeed="17.23" meanTimeLoss="3.13" meanOccupancy="9.61" maxOccupancy="11.43" meanMaxJamLengthInVehicles="0.00" meanMaxJamLengthInMeters="0.00" maxJamLengthInVehicles="0" maxJamLengthInMeters="0.00" jamLengthInVehiclesSum="0" jamLengthInMetersSum="0.00" meanHaltingDuration="0.00" maxHaltingDuration="0.00" haltingDurationSum="0.00" meanIntervalHaltingDuration="0.00" maxIntervalHaltingDuration="0.00" intervalHaltingDurationSum="0.00" startedHalts="0.00" meanVehicleNumber="13.90" maxVehicleNumber="16" />
   <interval begin="240.00" end="300.00" id="mainline_up_1_0" sampledSeconds="1169.03" nVehEntered="41" nVehLeft="44" nVehSeen="60" meanSpeed="17.76" meanTimeLoss="3.37" meanOccupancy="13.80" maxOccupancy="16.43" meanMaxJamLengthInVehicles="0.00" meanMaxJamLengthInMeters="0.00" maxJamLengthInVehicles="0" maxJamLengthInMeters="0.00" jamLengthInVehiclesSum="0" jamLengthInMetersSum="0.00" meanHaltingDuration="0.00" maxHaltingDuration="0.00" haltingDurationSum="0.00" meanIntervalHaltingDuration="0.00" maxIntervalHaltingDuration="0.00" intervalHaltingDurationSum="0.00" startedHalts="0.00" meanVehicleNumber="19.92" maxVehicleNumber="24" />
   <interval begin="240.00" end="300.00" id="mainline_up_2_0" sampledSeconds="1137.43" nVehEntered="38" nVehLeft="37" nVehSeen="57" meanSpeed="19.26" meanTimeLoss="2.80" meanOccupancy="13.39" maxOccupancy="15.03" meanMaxJamLengthInVehicles="0.00" meanMaxJamLengthInMeters="0.00" maxJamLengthInVehicles="0" maxJamLengthInMeters="0.00" jamLengthInVehiclesSum="0" jamLengthInMetersSum="0.00" meanHaltingDuration="0.00" maxHaltingDuration="0.00" haltingDurationSum="0.00" meanIntervalHaltingDuration="0.00" maxIntervalHaltingDuration="0.00" intervalHaltingDurationSum="0.00" startedHalts="0.00" meanVehicleNumber="19.50" maxVehicleNumber="22" />
   <interval begin="240.00" end="300.00" id="mainline_up_0_1" sampledSeconds="724.74" nVehEntered="22" nVehLeft="22" nVehSeen="36" meanSpeed="16.98" meanTimeLoss="2.79" meanOccupancy="8.58" maxOccupancy="10.00" meanMaxJamLengthInVehicles="0.00" meanMaxJamLengthInMeters="0.00" maxJamLengthInVehicles="0" maxJamLengthInMeters="0.00" jamLengthInVehiclesSum="0" jamLengthInMetersSum="0.00" meanHaltingDuration="0.00" maxHaltingDuration="0.00" haltingDurationSum="0.00" meanIntervalHaltingDuration="0.00" maxIntervalHaltingDuration="0.00" intervalHaltingDurationSum="0.00" startedHalts="0.00" meanVehicleNumber="12.37" maxVehicleNumber="14" />
   <interval begin="240.00" end="300.00" id="mainline_up_1_1" sampledSeconds="1006.00" nVehEntered="37" nVehLeft="34" nVehSeen="54" meanSpeed="18.89" meanTimeLoss="2.79" meanOccupancy="11.89" maxOccupancy="15.00" meanMaxJamLengthInVehicles="0.00" meanMaxJamLengthInMeters="0.00" maxJamLengthInVehicles="0" maxJamLengthInMeters="0.00" jamLengthInVehiclesSum="0" jamLengthInMetersSum="0.00" meanHaltingDuration="0.00" maxHaltingDuration="0.00" haltingDurationSum="0.00" meanIntervalHaltingDuration="0.00" maxIntervalHaltingDuration="0.00" intervalHaltingDurationSum="0.00" startedHalts="0.00" meanVehicleNumber="17.25" maxVehicleNumber="22" />
   <interval begin="240.00" end="300.00" id="mainline_up_2_1" sampledSeconds="1143.59" nVehEntered="36" nVehLeft="36" nVehSeen="56" meanSpeed="20.01" meanTimeLoss="2.61" meanOccupancy="13.54" maxOccupancy="15.71" meanMaxJamLengthInVehicles="0.00" meanMaxJamLengthInMeters="0.00" maxJamLengthInVehicles="0" maxJamLengthInMeters="0.00" jamLengthInVehiclesSum="0" jamLengthInMetersSum="0.00" meanHaltingDuration="0.00" maxHaltingDuration="0.00" haltingDurationSum="0.00" meanIntervalHaltingDuration="0.00" maxIntervalHaltingDuration="0.00" intervalHaltingDurationSum="0.00" startedHalts="0.00" meanVehicleNumber="19.67" maxVehicleNumber="23" />