<?xml version="1.0" encoding="UTF-8"?>

<!-- generated on 02/13/19 00:13:16 by Eclipse SUMO Version 1.0.1
<configuration xmlns:xsi="http://www.w3.org/2001/XMLSchema-instance" xsi:noNamespaceSchemaLocation="http://sumo.dlr.de/xsd/sumoConfiguration.xsd">

    <input>
        <net-file value="./project/ramp.net.xml"/>
        <route-files value="./project/ramp.rou.xml"/>
        <additional-files value="./project/ramp.add.xml"/>
    </input>

    <time>
        <begin value="0"/>
    </time>

    <report>
        <verbose value="true"/>
        <no-step-log value="true"/>
    </report>

    <traci_server>
        <remote-port value="52927"/>
    </traci_server>

    <random_number>
        <seed value="1777382835"/>
    </random_number>

    <gui_only>
        <quit-on-end value="true"/>
        <start value="true"/>
    </gui_only>

</configuration>
-->

<detector xmlns:xsi="http://www.w3.org/2001/XMLSchema-instance" xsi:noNamespaceSchemaLocation="http://sumo.dlr.de/xsd/det_e1_file.xsd">
    <interval begin="0.00" end="60.00" id="ramp_eval_0_0" nVehContrib="2" flow="120.00" occupancy="1.67" speed="9.96" length="5.00" nVehEntered="2"/>
    <interval begin="0.00" end="60.00" id="ramp_eval_2_0" nVehContrib="0" flow="0.00" occupancy="0.00" speed="-1.00" length="-1.00" nVehEntered="0"/>
   <interval begin="0.00" end="60.00" id="ramp_eval_1_0" sampledSeconds="240.36" nVehEntered="13" nVehLeft="0" nVehSeen="13" meanSpeed="9.59" meanTimeLoss="2.05" meanOccupancy="1.72" maxOccupancy="5.51" meanMaxJamLengthInVehicles="0.00" meanMaxJamLengthInMeters="0.00" maxJamLengthInVehicles="0" maxJamLengthInMeters="0.00" jamLengthInVehiclesSum="0" jamLengthInMetersSum="0.00" meanHaltingDuration="0.00" maxHaltingDuration="0.00" haltingDurationSum="0.00" meanIntervalHaltingDuration="0.00" maxIntervalHaltingDuration="0.00" intervalHaltingDurationSum="0.00" startedHalts="0.00" meanVehicleNumber="4.10" maxVehicleNumber="13" />
    <interval begin="60.00" end="120.00" id="ramp_eval_0_0" nVehContrib="22" flow="1320.00" occupancy="19.62" speed="9.36" length="5.00" nVehEntered="22"/>
    <interval begin="60.00" end="120.00" id="ramp_eval_2_0" nVehContrib="0" flow="0.00" occupancy="0.00" speed="-1.00" length="-1.00" nVehEntered="0"/>
   <interval begin="60.00" end="120.00" id="ramp_eval_1_0" sampledSeconds="1371.87" nVehEntered="19" nVehLeft="0" nVehSeen="32" meanSpeed="9.37" meanTimeLoss="5.64" meanOccupancy="9.72" maxOccupancy="13.56" meanMaxJamLengthInVehicles="0.00" meanMaxJamLengthInMeters="0.00" maxJamLengthInVehicles="0" maxJamLengthInMeters="0.00" jamLengthInVehiclesSum="0" jamLengthInMetersSum="0.00" meanHaltingDuration="0.00" maxHaltingDuration="0.00" haltingDurationSum="0.00" meanIntervalHaltingDuration="0.00" maxIntervalHaltingDuration="0.00" intervalHaltingDurationSum="0.00" startedHalts="0.00" meanVehicleNumber="23.05" maxVehicleNumber="32" />
    <interval begin="120.00" end="180.00" id="ramp_eval_0_0" nVehContrib="15" flow="900.00" occupancy="14.51" speed="8.67" length="5.00" nVehEntered="15"/>
    <interval begin="120.00" end="180.00" id="ramp_eval_2_0" nVehContrib="14" flow="840.00" occupancy="13.14" speed="9.41" length="5.00" nVehEntered="15"/>
   <interval begin="120.00" end="180.00" id="ramp_eval_1_0" sampledSeconds="2318.42" nVehEntered="20" nVehLeft="10" nVehSeen="52" meanSpeed="9.05" meanTimeLoss="7.45" meanOccupancy="16.34" maxOccupancy="18.22" meanMaxJamLengthInVehicles="0.00" meanMaxJamLengthInMeters="0.00" maxJamLengthInVehicles="0" maxJamLengthInMeters="0.00" jamLengthInVehiclesSum="0" jamLengthInMetersSum="0.00" meanHaltingDuration="0.00" maxHaltingDuration="0.00" haltingDurationSum="0.00" meanIntervalHaltingDuration="0.00" maxIntervalHaltingDuration="0.00" intervalHaltingDurationSum="0.00" startedHalts="0.00" meanVehicleNumber="38.82" maxVehicleNumber="43" />
    <interval begin="180.00" end="240.00" id="ramp_eval_0_0" nVehContrib="20" flow="1200.00" occupancy="19.13" speed="8.74" length="5.00" nVehEntered="20"/>
    <interval begin="180.00" end="240.00" id="ramp_eval_2_0" nVehContrib="19" flow="1140.00" occupancy="17.21" speed="8.84" length="5.00" nVehEntered="19"/>
   <interval begin="180.00" end="240.00" id="ramp_eval_1_0" sampledSeconds="2477.97" nVehEntered="19" nVehLeft="17" nVehSeen="61" meanSpeed="8.75" meanTimeLoss="8.25" meanOccupancy="17.44" maxOccupancy="19.07" meanMaxJamLengthInVehicles="0.00" meanMaxJamLengthInMeters="0.00" maxJamLengthInVehicles="0" maxJamLengthInMeters="0.00" jamLengthInVehiclesSum="0" jamLengthInMetersSum="0.00" meanHaltingDuration="0.00" maxHaltingDuration="0.00" haltingDurationSum="0.00" meanIntervalHaltingDuration="0.00" maxIntervalHaltingDuration="0.00" intervalHaltingDurationSum="0.00" startedHalts="0.00" meanVehicleNumber="41.55" maxVehicleNumber="45" />
    <interval begin="240.00" end="300.00" id="ramp_eval_0_0" nVehContrib="19" flow="1140.00" occupancy="17.13" speed="9.32" length="5.00" nVehEntered="19"/>
    <interval begin="240.00" end="300.00" id="ramp_eval_2_0" nVehContrib="18" flow="1080.00" occupancy="18.08" speed="8.31" length="5.00" nVehEntered="17"/>
   <interval begin="240.00" end="300.00" id="ramp_eval_1_0" sampledSeconds="2599.55" nVehEntered="17" nVehLeft="19" nVehSeen="61" meanSpeed="8.93" meanTimeLoss="8.27" meanOccupancy="18.28" maxOccupancy="19.92" meanMaxJamLengthInVehicles="0.00" meanMaxJamLengthInMeters="0.00" maxJamLengthInVehicles="0" maxJamLengthInMeters="0.00" jamLengthInVehiclesSum="0" jamLengthInMetersSum="0.00" meanHaltingDuration="0.00" maxHaltingDuration="0.00" haltingDurationSum="0.00" meanIntervalHaltingDuration="0.00" maxIntervalHaltingDuration="0.00" intervalHaltingDurationSum="0.00" startedHalts="0.00" meanVehicleNumber="43.60" maxVehicleNumber="48" />
    <interval begin="300.00" end="360.00" id="ramp_eval_0_0" nVehContrib="16" flow="960.00" occupancy="14.94" speed="8.98" length="5.00" nVehEntered="16"/>
    <interval begin="300.00" end="360.00" id="ramp_eval_2_0" nVehContrib="22" flow="1320.00" occupancy="20.50" speed="8.96" length="5.00" nVehEntered="22"/>
   <interval begin="300.00" end="360.00" id="ramp_eval_1_0" sampledSeconds="2436.33" nVehEntered="19" nVehLeft="23" nVehSeen="61" meanSpeed="8.88" meanTimeLoss="7.30" meanOccupancy="17.10" maxOccupancy="17.90" meanMaxJamLengthInVehicles="0.00" meanMaxJamLengthInMeters="0.00" maxJamLengthInVehicles="0" maxJamLengthInMeters="0.00" jamLengthInVehiclesSum="0" jamLengthInMetersSum="0.00" meanHaltingDuration="0.00" maxHaltingDuration="0.00" haltingDurationSum="0.00" meanIntervalHaltingDuration="0.00" maxIntervalHaltingDuration="0.00" intervalHaltingDurationSum="0.00" startedHalts="0.00" meanVehicleNumber="40.88" maxVehicleNumber="43" />
</detector>
