<?xml version="1.0" encoding="UTF-8"?>

<!-- generated on 02/11/19 21:34:58 by Eclipse SUMO Version 1.0.1
<configuration xmlns:xsi="http://www.w3.org/2001/XMLSchema-instance" xsi:noNamespaceSchemaLocation="http://sumo.dlr.de/xsd/sumoConfiguration.xsd">

    <input>
        <net-file value="./Project/ramp.net.xml"/>
        <route-files value="./Project/ramp.rou.xml"/>
        <additional-files value="./Project/ramp.add.xml"/>
    </input>

    <time>
        <begin value="0"/>
    </time>

    <report>
        <verbose value="true"/>
        <no-step-log value="true"/>
    </report>

    <traci_server>
        <remote-port value="55037"/>
    </traci_server>

    <random_number>
        <seed value="1114505689"/>
    </random_number>

    <gui_only>
        <quit-on-end value="true"/>
        <start value="true"/>
    </gui_only>

</configuration>
-->

<detector xmlns:xsi="http://www.w3.org/2001/XMLSchema-instance" xsi:noNamespaceSchemaLocation="http://sumo.dlr.de/xsd/det_e1_file.xsd">
    <interval begin="0.00" end="60.00" id="ramp_eval_0_0" nVehContrib="3" flow="180.00" occupancy="2.35" speed="10.68" length="5.00" nVehEntered="3"/>
    <interval begin="0.00" end="60.00" id="ramp_eval_2_0" nVehContrib="0" flow="0.00" occupancy="0.00" speed="-1.00" length="-1.00" nVehEntered="0"/>
   <interval begin="0.00" end="60.00" id="ramp_eval_1_0" sampledSeconds="186.11" nVehEntered="9" nVehLeft="0" nVehSeen="9" meanSpeed="10.84" meanTimeLoss="0.93" meanOccupancy="1.33" maxOccupancy="3.81" meanMaxJamLengthInVehicles="0.00" meanMaxJamLengthInMeters="0.00" maxJamLengthInVehicles="0" maxJamLengthInMeters="0.00" jamLengthInVehiclesSum="0" jamLengthInMetersSum="0.00" meanHaltingDuration="0.00" maxHaltingDuration="0.00" haltingDurationSum="0.00" meanIntervalHaltingDuration="0.00" maxIntervalHaltingDuration="0.00" intervalHaltingDurationSum="0.00" startedHalts="0.00" meanVehicleNumber="3.15" maxVehicleNumber="9" />
    <interval begin="60.00" end="120.00" id="ramp_eval_0_0" nVehContrib="14" flow="840.00" occupancy="11.07" speed="10.58" length="5.00" nVehEntered="14"/>
    <interval begin="60.00" end="120.00" id="ramp_eval_2_0" nVehContrib="1" flow="60.00" occupancy="0.69" speed="12.05" length="5.00" nVehEntered="1"/>
   <interval begin="60.00" end="120.00" id="ramp_eval_1_0" sampledSeconds="943.43" nVehEntered="13" nVehLeft="0" nVehSeen="22" meanSpeed="10.44" meanTimeLoss="3.22" meanOccupancy="6.68" maxOccupancy="9.32" meanMaxJamLengthInVehicles="0.00" meanMaxJamLengthInMeters="0.00" maxJamLengthInVehicles="0" maxJamLengthInMeters="0.00" jamLengthInVehiclesSum="0" jamLengthInMetersSum="0.00" meanHaltingDuration="0.00" maxHaltingDuration="0.00" haltingDurationSum="0.00" meanIntervalHaltingDuration="0.00" maxIntervalHaltingDuration="0.00" intervalHaltingDurationSum="0.00" startedHalts="0.00" meanVehicleNumber="15.80" maxVehicleNumber="22" />
    <interval begin="120.00" end="180.00" id="ramp_eval_0_0" nVehContrib="12" flow="720.00" occupancy="9.74" speed="10.29" length="5.00" nVehEntered="12"/>
    <interval begin="120.00" end="180.00" id="ramp_eval_2_0" nVehContrib="10" flow="600.00" occupancy="8.24" speed="10.13" length="5.00" nVehEntered="10"/>
   <interval begin="120.00" end="180.00" id="ramp_eval_1_0" sampledSeconds="1480.65" nVehEntered="14" nVehLeft="9" nVehSeen="36" meanSpeed="10.13" meanTimeLoss="4.51" meanOccupancy="10.43" maxOccupancy="11.44" meanMaxJamLengthInVehicles="0.00" meanMaxJamLengthInMeters="0.00" maxJamLengthInVehicles="0" maxJamLengthInMeters="0.00" jamLengthInVehiclesSum="0" jamLengthInMetersSum="0.00" meanHaltingDuration="0.00" maxHaltingDuration="0.00" haltingDurationSum="0.00" meanIntervalHaltingDuration="0.00" maxIntervalHaltingDuration="0.00" intervalHaltingDurationSum="0.00" startedHalts="0.00" meanVehicleNumber="24.87" maxVehicleNumber="27" />
    <interval begin="180.00" end="240.00" id="ramp_eval_0_0" nVehContrib="11" flow="660.00" occupancy="8.50" speed="10.84" length="5.00" nVehEntered="11"/>
    <interval begin="180.00" end="240.00" id="ramp_eval_2_0" nVehContrib="15" flow="900.00" occupancy="13.59" speed="9.77" length="5.00" nVehEntered="16"/>
   <interval begin="180.00" end="240.00" id="ramp_eval_1_0" sampledSeconds="1565.18" nVehEntered="13" nVehLeft="14" nVehSeen="40" meanSpeed="10.29" meanTimeLoss="4.27" meanOccupancy="10.99" maxOccupancy="12.19" meanMaxJamLengthInVehicles="0.00" meanMaxJamLengthInMeters="0.00" maxJamLengthInVehicles="0" maxJamLengthInMeters="0.00" jamLengthInVehiclesSum="0" jamLengthInMetersSum="0.00" meanHaltingDuration="0.00" maxHaltingDuration="0.00" haltingDurationSum="0.00" meanIntervalHaltingDuration="0.00" maxIntervalHaltingDuration="0.00" intervalHaltingDurationSum="0.00" startedHalts="0.00" meanVehicleNumber="26.30" maxVehicleNumber="29" />
    <interval begin="240.00" end="300.00" id="ramp_eval_0_0" nVehContrib="12" flow="720.00" occupancy="10.75" speed="9.40" length="5.00" nVehEntered="12"/>
    <interval begin="240.00" end="300.00" id="ramp_eval_2_0" nVehContrib="14" flow="840.00" occupancy="10.74" speed="10.17" length="5.00" nVehEntered="13"/>
   <interval begin="240.00" end="300.00" id="ramp_eval_1_0" sampledSeconds="1492.70" nVehEntered="13" nVehLeft="16" nVehSeen="39" meanSpeed="9.37" meanTimeLoss="6.46" meanOccupancy="10.48" maxOccupancy="11.86" meanMaxJamLengthInVehicles="0.00" meanMaxJamLengthInMeters="0.00" maxJamLengthInVehicles="0" maxJamLengthInMeters="0.00" jamLengthInVehiclesSum="0" jamLengthInMetersSum="0.00" meanHaltingDuration="0.00" maxHaltingDuration="0.00" haltingDurationSum="0.00" meanIntervalHaltingDuration="0.00" maxIntervalHaltingDuration="0.00" intervalHaltingDurationSum="0.00" startedHalts="0.00" meanVehicleNumber="25.13" maxVehicleNumber="29" />
    <interval begin="300.00" end="360.00" id="ramp_eval_0_0" nVehContrib="18" flow="1080.00" occupancy="17.33" speed="8.98" length="5.00" nVehEntered="18"/>
    <interval begin="300.00" end="360.00" id="ramp_eval_2_0" nVehContrib="12" flow="720.00" occupancy="12.50" speed="8.03" length="5.00" nVehEntered="12"/>
   <interval begin="300.00" end="360.00" id="ramp_eval_1_0" sampledSeconds="1724.15" nVehEntered="13" nVehLeft="6" nVehSeen="36" meanSpeed="8.60" meanTimeLoss="10.92" meanOccupancy="12.16" maxOccupancy="14.31" meanMaxJamLengthInVehicles="0.00" meanMaxJamLengthInMeters="0.00" maxJamLengthInVehicles="0" maxJamLengthInMeters="0.00" jamLengthInVehiclesSum="0" jamLengthInMetersSum="0.00" meanHaltingDuration="0.00" maxHaltingDuration="0.00" haltingDurationSum="0.00" meanIntervalHaltingDuration="0.00" maxIntervalHaltingDuration="0.00" intervalHaltingDurationSum="0.00" startedHalts="0.00" meanVehicleNumber="28.88" maxVehicleNumber="34" />
    <interval begin="360.00" end="420.00" id="ramp_eval_0_0" nVehContrib="12" flow="720.00" occupancy="9.53" speed="10.54" length="5.00" nVehEntered="12"/>
    <interval begin="360.00" end="420.00" id="ramp_eval_2_0" nVehContrib="4" flow="240.00" occupancy="4.78" speed="6.98" length="5.00" nVehEntered="4"/>
   <interval begin="360.00" end="420.00" id="ramp_eval_1_0" sampledSeconds="1850.85" nVehEntered="14" nVehLeft="7" nVehSeen="44" meanSpeed="8.63" meanTimeLoss="9.64" meanOccupancy="13.06" maxOccupancy="15.68" meanMaxJamLengthInVehicles="0.00" meanMaxJamLengthInMeters="0.00" maxJamLengthInVehicles="0" maxJamLengthInMeters="0.00" jamLengthInVehiclesSum="0" jamLengthInMetersSum="0.00" meanHaltingDuration="0.00" maxHaltingDuration="0.00" haltingDurationSum="0.00" meanIntervalHaltingDuration="0.00" maxIntervalHaltingDuration="0.00" intervalHaltingDurationSum="0.00" startedHalts="0.00" meanVehicleNumber="30.98" maxVehicleNumber="37" />
    <interval begin="420.00" end="480.00" id="ramp_eval_0_0" nVehContrib="14" flow="840.00" occupancy="12.39" speed="9.44" length="5.00" nVehEntered="14"/>
    <interval begin="420.00" end="480.00" id="ramp_eval_2_0" nVehContrib="23" flow="1380.00" occupancy="23.49" speed="8.28" length="5.00" nVehEntered="23"/>
   <interval begin="420.00" end="480.00" id="ramp_eval_1_0" sampledSeconds="1904.86" nVehEntered="13" nVehLeft="25" nVehSeen="50" meanSpeed="9.04" meanTimeLoss="6.65" meanOccupancy="13.34" maxOccupancy="16.12" meanMaxJamLengthInVehicles="0.00" meanMaxJamLengthInMeters="0.00" maxJamLengthInVehicles="0" maxJamLengthInMeters="0.00" jamLengthInVehiclesSum="0" jamLengthInMetersSum="0.00" meanHaltingDuration="0.00" maxHaltingDuration="0.00" haltingDurationSum="0.00" meanIntervalHaltingDuration="0.00" maxIntervalHaltingDuration="0.00" intervalHaltingDurationSum="0.00" startedHalts="0.00" meanVehicleNumber="32.08" maxVehicleNumber="39" />
    <interval begin="480.00" end="540.00" id="ramp_eval_0_0" nVehContrib="12" flow="720.00" occupancy="10.75" speed="9.74" length="5.00" nVehEntered="13"/>
    <interval begin="480.00" end="540.00" id="ramp_eval_2_0" nVehContrib="10" flow="600.00" occupancy="9.28" speed="9.01" length="5.00" nVehEntered="10"/>
   <interval begin="480.00" end="540.00" id="ramp_eval_1_0" sampledSeconds="1653.67" nVehEntered="14" nVehLeft="10" nVehSeen="39" meanSpeed="9.45" meanTimeLoss="4.48" meanOccupancy="11.64" maxOccupancy="13.14" meanMaxJamLengthInVehicles="0.00" meanMaxJamLengthInMeters="0.00" maxJamLengthInVehicles="0" maxJamLengthInMeters="0.00" jamLengthInVehiclesSum="0" jamLengthInMetersSum="0.00" meanHaltingDuration="0.00" maxHaltingDuration="0.00" haltingDurationSum="0.00" meanIntervalHaltingDuration="0.00" maxIntervalHaltingDuration="0.00" intervalHaltingDurationSum="0.00" startedHalts="0.00" meanVehicleNumber="27.78" maxVehicleNumber="31" />
    <interval begin="540.00" end="600.00" id="ramp_eval_0_0" nVehContrib="14" flow="840.00" occupancy="11.48" speed="9.83" length="5.00" nVehEntered="13"/>
    <interval begin="540.00" end="600.00" id="ramp_eval_2_0" nVehContrib="16" flow="960.00" occupancy="14.45" speed="9.24" length="5.00" nVehEntered="16"/>
   <interval begin="540.00" end="600.00" id="ramp_eval_1_0" sampledSeconds="1664.71" nVehEntered="13" nVehLeft="14" nVehSeen="42" meanSpeed="9.62" meanTimeLoss="4.14" meanOccupancy="11.70" maxOccupancy="12.71" meanMaxJamLengthInVehicles="0.00" meanMaxJamLengthInMeters="0.00" maxJamLengthInVehicles="0" maxJamLengthInMeters="0.00" jamLengthInVehiclesSum="0" jamLengthInMetersSum="0.00" meanHaltingDuration="0.00" maxHaltingDuration="0.00" haltingDurationSum="0.00" meanIntervalHaltingDuration="0.00" maxIntervalHaltingDuration="0.00" intervalHaltingDurationSum="0.00" startedHalts="0.00" meanVehicleNumber="27.95" maxVehicleNumber="31" />
    <interval begin="600.00" end="660.00" id="ramp_eval_0_0" nVehContrib="12" flow="720.00" occupancy="10.40" speed="9.65" length="5.00" nVehEntered="12"/>
    <interval begin="600.00" end="660.00" id="ramp_eval_2_0" nVehContrib="13" flow="780.00" occupancy="11.53" speed="9.42" length="5.00" nVehEntered="13"/>
   <interval begin="600.00" end="660.00" id="ramp_eval_1_0" sampledSeconds="1657.81" nVehEntered="13" nVehLeft="15" nVehSeen="41" meanSpeed="9.48" meanTimeLoss="5.10" meanOccupancy="11.65" maxOccupancy="12.71" meanMaxJamLengthInVehicles="0.00" meanMaxJamLengthInMeters="0.00" maxJamLengthInVehicles="0" maxJamLengthInMeters="0.00" jamLengthInVehiclesSum="0" jamLengthInMetersSum="0.00" meanHaltingDuration="0.00" maxHaltingDuration="0.00" haltingDurationSum="0.00" meanIntervalHaltingDuration="0.00" maxIntervalHaltingDuration="0.00" intervalHaltingDurationSum="0.00" startedHalts="0.00" meanVehicleNumber="27.83" maxVehicleNumber="30" />
    <interval begin="660.00" end="720.00" id="ramp_eval_0_0" nVehContrib="14" flow="840.00" occupancy="12.67" speed="9.29" length="5.00" nVehEntered="14"/>
    <interval begin="660.00" end="720.00" id="ramp_eval_2_0" nVehContrib="14" flow="840.00" occupancy="12.55" speed="9.30" length="5.00" nVehEntered="14"/>
   <interval begin="660.00" end="720.00" id="ramp_eval_1_0" sampledSeconds="1657.67" nVehEntered="13" nVehLeft="12" nVehSeen="39" meanSpeed="9.34" meanTimeLoss="5.45" meanOccupancy="11.66" maxOccupancy="12.69" meanMaxJamLengthInVehicles="0.00" meanMaxJamLengthInMeters="0.00" maxJamLengthInVehicles="0" maxJamLengthInMeters="0.00" jamLengthInVehiclesSum="0" jamLengthInMetersSum="0.00" meanHaltingDuration="0.00" maxHaltingDuration="0.00" haltingDurationSum="0.00" meanIntervalHaltingDuration="0.00" maxIntervalHaltingDuration="0.00" intervalHaltingDurationSum="0.00" startedHalts="0.00" meanVehicleNumber="27.83" maxVehicleNumber="31" />
    <interval begin="720.00" end="780.00" id="ramp_eval_0_0" nVehContrib="14" flow="840.00" occupancy="12.13" speed="9.63" length="5.00" nVehEntered="14"/>
    <interval begin="720.00" end="780.00" id="ramp_eval_2_0" nVehContrib="10" flow="600.00" occupancy="9.36" speed="8.96" length="5.00" nVehEntered="10"/>
   <interval begin="720.00" end="780.00" id="ramp_eval_1_0" sampledSeconds="1684.73" nVehEntered="14" nVehLeft="14" nVehSeen="41" meanSpeed="9.25" meanTimeLoss="5.39" meanOccupancy="11.85" maxOccupancy="13.14" meanMaxJamLengthInVehicles="0.00" meanMaxJamLengthInMeters="0.00" maxJamLengthInVehicles="0" maxJamLengthInMeters="0.00" jamLengthInVehiclesSum="0" jamLengthInMetersSum="0.00" meanHaltingDuration="0.00" maxHaltingDuration="0.00" haltingDurationSum="0.00" meanIntervalHaltingDuration="0.00" maxIntervalHaltingDuration="0.00" intervalHaltingDurationSum="0.00" startedHalts="0.00" meanVehicleNumber="28.32" maxVehicleNumber="31" />
    <interval begin="780.00" end="840.00" id="ramp_eval_0_0" nVehContrib="12" flow="720.00" occupancy="10.80" speed="9.36" length="5.00" nVehEntered="12"/>
    <interval begin="780.00" end="840.00" id="ramp_eval_2_0" nVehContrib="14" flow="840.00" occupancy="12.63" speed="9.26" length="5.00" nVehEntered="14"/>
   <interval begin="780.00" end="840.00" id="ramp_eval_1_0" sampledSeconds="1717.30" nVehEntered="13" nVehLeft="12" nVehSeen="40" meanSpeed="9.42" meanTimeLoss="5.06" meanOccupancy="12.07" maxOccupancy="13.56" meanMaxJamLengthInVehicles="0.00" meanMaxJamLengthInMeters="0.00" maxJamLengthInVehicles="0" maxJamLengthInMeters="0.00" jamLengthInVehiclesSum="0" jamLengthInMetersSum="0.00" meanHaltingDuration="0.00" maxHaltingDuration="0.00" haltingDurationSum="0.00" meanIntervalHaltingDuration="0.00" maxIntervalHaltingDuration="0.00" intervalHaltingDurationSum="0.00" startedHalts="0.00" meanVehicleNumber="28.83" maxVehicleNumber="32" />
    <interval begin="840.00" end="900.00" id="ramp_eval_0_0" nVehContrib="14" flow="840.00" occupancy="13.15" speed="9.41" length="5.00" nVehEntered="15"/>
    <interval begin="840.00" end="900.00" id="ramp_eval_2_0" nVehContrib="13" flow="780.00" occupancy="11.35" speed="9.59" length="5.00" nVehEntered="13"/>
   <interval begin="840.00" end="900.00" id="ramp_eval_1_0" sampledSeconds="1607.19" nVehEntered="14" nVehLeft="15" nVehSeen="42" meanSpeed="9.39" meanTimeLoss="5.00" meanOccupancy="11.30" maxOccupancy="12.38" meanMaxJamLengthInVehicles="0.00" meanMaxJamLengthInMeters="0.00" maxJamLengthInVehicles="0" maxJamLengthInMeters="0.00" jamLengthInVehiclesSum="0" jamLengthInMetersSum="0.00" meanHaltingDuration="0.00" maxHaltingDuration="0.00" haltingDurationSum="0.00" meanIntervalHaltingDuration="0.00" maxIntervalHaltingDuration="0.00" intervalHaltingDurationSum="0.00" startedHalts="0.00" meanVehicleNumber="27.03" maxVehicleNumber="30" />
    <interval begin="900.00" end="960.00" id="ramp_eval_0_0" nVehContrib="14" flow="840.00" occupancy="11.17" speed="9.93" length="5.00" nVehEntered="13"/>
    <interval begin="900.00" end="960.00" id="ramp_eval_2_0" nVehContrib="16" flow="960.00" occupancy="15.07" speed="8.90" length="5.00" nVehEntered="16"/>
   <interval begin="900.00" end="960.00" id="ramp_eval_1_0" sampledSeconds="1770.93" nVehEntered="13" nVehLeft="12" nVehSeen="40" meanSpeed="9.31" meanTimeLoss="6.37" meanOccupancy="12.46" maxOccupancy="13.56" meanMaxJamLengthInVehicles="0.00" meanMaxJamLengthInMeters="0.00" maxJamLengthInVehicles="0" maxJamLengthInMeters="0.00" jamLengthInVehiclesSum="0" jamLengthInMetersSum="0.00" meanHaltingDuration="0.00" maxHaltingDuration="0.00" haltingDurationSum="0.00" meanIntervalHaltingDuration="0.00" maxIntervalHaltingDuration="0.00" intervalHaltingDurationSum="0.00" startedHalts="0.00" meanVehicleNumber="29.68" maxVehicleNumber="33" />
    <interval begin="960.00" end="1020.00" id="ramp_eval_0_0" nVehContrib="13" flow="780.00" occupancy="11.41" speed="9.62" length="5.00" nVehEntered="13"/>
    <interval begin="960.00" end="1020.00" id="ramp_eval_2_0" nVehContrib="13" flow="780.00" occupancy="12.21" speed="8.94" length="5.00" nVehEntered="13"/>
   <interval begin="960.00" end="1020.00" id="ramp_eval_1_0" sampledSeconds="1681.09" nVehEntered="13" nVehLeft="15" nVehSeen="41" meanSpeed="9.38" meanTimeLoss="6.08" meanOccupancy="11.82" maxOccupancy="13.35" meanMaxJamLengthInVehicles="0.00" meanMaxJamLengthInMeters="0.00" maxJamLengthInVehicles="0" maxJamLengthInMeters="0.00" jamLengthInVehiclesSum="0" jamLengthInMetersSum="0.00" meanHaltingDuration="0.00" maxHaltingDuration="0.00" haltingDurationSum="0.00" meanIntervalHaltingDuration="0.00" maxIntervalHaltingDuration="0.00" intervalHaltingDurationSum="0.00" startedHalts="0.00" meanVehicleNumber="28.28" maxVehicleNumber="32" />
    <interval begin="1020.00" end="1080.00" id="ramp_eval_0_0" nVehContrib="15" flow="900.00" occupancy="12.26" speed="10.33" length="5.00" nVehEntered="15"/>
    <interval begin="1020.00" end="1080.00" id="ramp_eval_2_0" nVehContrib="13" flow="780.00" occupancy="12.19" speed="8.89" length="5.00" nVehEntered="13"/>
   <interval begin="1020.00" end="1080.00" id="ramp_eval_1_0" sampledSeconds="1706.05" nVehEntered="13" nVehLeft="14" nVehSeen="39" meanSpeed="9.54" meanTimeLoss="5.89" meanOccupancy="12.00" maxOccupancy="12.71" meanMaxJamLengthInVehicles="0.00" meanMaxJamLengthInMeters="0.00" maxJamLengthInVehicles="0" maxJamLengthInMeters="0.00" jamLengthInVehiclesSum="0" jamLengthInMetersSum="0.00" meanHaltingDuration="0.00" maxHaltingDuration="0.00" haltingDurationSum="0.00" meanIntervalHaltingDuration="0.00" maxIntervalHaltingDuration="0.00" intervalHaltingDurationSum="0.00" startedHalts="0.00" meanVehicleNumber="28.62" maxVehicleNumber="31" />
    <interval begin="1080.00" end="1140.00" id="ramp_eval_0_0" nVehContrib="14" flow="840.00" occupancy="10.87" speed="10.78" length="5.00" nVehEntered="14"/>
    <interval begin="1080.00" end="1140.00" id="ramp_eval_2_0" nVehContrib="14" flow="840.00" occupancy="12.71" speed="9.18" length="5.00" nVehEntered="14"/>
   <interval begin="1080.00" end="1140.00" id="ramp_eval_1_0" sampledSeconds="1716.61" nVehEntered="14" nVehLeft="9" nVehSeen="39" meanSpeed="9.96" meanTimeLoss="5.49" meanOccupancy="12.11" maxOccupancy="13.14" meanMaxJamLengthInVehicles="0.00" meanMaxJamLengthInMeters="0.00" maxJamLengthInVehicles="0" maxJamLengthInMeters="0.00" jamLengthInVehiclesSum="0" jamLengthInMetersSum="0.00" meanHaltingDuration="0.00" maxHaltingDuration="0.00" haltingDurationSum="0.00" meanIntervalHaltingDuration="0.00" maxIntervalHaltingDuration="0.00" intervalHaltingDurationSum="0.00" startedHalts="0.00" meanVehicleNumber="28.82" maxVehicleNumber="31" />
    <interval begin="1140.00" end="1200.00" id="ramp_eval_0_0" nVehContrib="12" flow="720.00" occupancy="10.30" speed="9.84" length="5.00" nVehEntered="12"/>
    <interval begin="1140.00" end="1200.00" id="ramp_eval_2_0" nVehContrib="15" flow="900.00" occupancy="12.96" speed="9.70" length="5.00" nVehEntered="15"/>
   <interval begin="1140.00" end="1200.00" id="ramp_eval_1_0" sampledSeconds="1565.65" nVehEntered="13" nVehLeft="20" nVehSeen="43" meanSpeed="10.08" meanTimeLoss="4.78" meanOccupancy="10.99" maxOccupancy="12.80" meanMaxJamLengthInVehicles="0.00" meanMaxJamLengthInMeters="0.00" maxJamLengthInVehicles="0" maxJamLengthInMeters="0.00" jamLengthInVehiclesSum="0" jamLengthInMetersSum="0.00" meanHaltingDuration="0.00" maxHaltingDuration="0.00" haltingDurationSum="0.00" meanIntervalHaltingDuration="0.00" maxIntervalHaltingDuration="0.00" intervalHaltingDurationSum="0.00" startedHalts="0.00" meanVehicleNumber="26.35" maxVehicleNumber="31" />
    <interval begin="1200.00" end="1260.00" id="ramp_eval_0_0" nVehContrib="13" flow="780.00" occupancy="10.40" speed="10.48" length="5.00" nVehEntered="13"/>
    <interval begin="1200.00" end="1260.00" id="ramp_eval_2_0" nVehContrib="8" flow="480.00" occupancy="7.24" speed="10.36" length="5.00" nVehEntered="9"/>
   <interval begin="1200.00" end="1260.00" id="ramp_eval_1_0" sampledSeconds="1460.61" nVehEntered="14" nVehLeft="8" nVehSeen="37" meanSpeed="9.76" meanTimeLoss="5.98" meanOccupancy="10.29" maxOccupancy="12.29" meanMaxJamLengthInVehicles="0.00" meanMaxJamLengthInMeters="0.00" maxJamLengthInVehicles="0" maxJamLengthInMeters="0.00" jamLengthInVehiclesSum="0" jamLengthInMetersSum="0.00" meanHaltingDuration="0.00" maxHaltingDuration="0.00" haltingDurationSum="0.00" meanIntervalHaltingDuration="0.00" maxIntervalHaltingDuration="0.00" intervalHaltingDurationSum="0.00" startedHalts="0.00" meanVehicleNumber="24.53" maxVehicleNumber="29" />
    <interval begin="1260.00" end="1320.00" id="ramp_eval_0_0" nVehContrib="12" flow="720.00" occupancy="11.14" speed="9.05" length="5.00" nVehEntered="12"/>
    <interval begin="1260.00" end="1320.00" id="ramp_eval_2_0" nVehContrib="17" flow="1020.00" occupancy="14.05" speed="9.61" length="5.00" nVehEntered="16"/>
   <interval begin="1260.00" end="1320.00" id="ramp_eval_1_0" sampledSeconds="1621.87" nVehEntered="13" nVehLeft="16" nVehSeen="42" meanSpeed="9.43" meanTimeLoss="5.80" meanOccupancy="11.39" maxOccupancy="12.71" meanMaxJamLengthInVehicles="0.00" meanMaxJamLengthInMeters="0.00" maxJamLengthInVehicles="0" maxJamLengthInMeters="0.00" jamLengthInVehiclesSum="0" jamLengthInMetersSum="0.00" meanHaltingDuration="0.00" maxHaltingDuration="0.00" haltingDurationSum="0.00" meanIntervalHaltingDuration="0.00" maxIntervalHaltingDuration="0.00" intervalHaltingDurationSum="0.00" startedHalts="0.00" meanVehicleNumber="27.27" maxVehicleNumber="31" />
    <interval begin="1320.00" end="1380.00" id="ramp_eval_0_0" nVehContrib="14" flow="840.00" occupancy="12.34" speed="9.55" length="5.00" nVehEntered="14"/>
    <interval begin="1320.00" end="1380.00" id="ramp_eval_2_0" nVehContrib="7" flow="420.00" occupancy="6.47" speed="9.11" length="5.00" nVehEntered="7"/>
   <interval begin="1320.00" end="1380.00" id="ramp_eval_1_0" sampledSeconds="1690.09" nVehEntered="14" nVehLeft="8" nVehSeen="40" meanSpeed="9.07" meanTimeLoss="7.07" meanOccupancy="11.92" maxOccupancy="13.98" meanMaxJamLengthInVehicles="0.00" meanMaxJamLengthInMeters="0.00" maxJamLengthInVehicles="0" maxJamLengthInMeters="0.00" jamLengthInVehiclesSum="0" jamLengthInMetersSum="0.00" meanHaltingDuration="0.00" maxHaltingDuration="0.00" haltingDurationSum="0.00" meanIntervalHaltingDuration="0.00" maxIntervalHaltingDuration="0.00" intervalHaltingDurationSum="0.00" startedHalts="0.00" meanVehicleNumber="28.32" maxVehicleNumber="33" />
    <interval begin="1380.00" end="1440.00" id="ramp_eval_0_0" nVehContrib="15" flow="900.00" occupancy="11.86" speed="10.61" length="5.00" nVehEntered="15"/>
    <interval begin="1380.00" end="1440.00" id="ramp_eval_2_0" nVehContrib="20" flow="1200.00" occupancy="20.33" speed="8.21" length="5.00" nVehEntered="20"/>
   <interval begin="1380.00" end="1440.00" id="ramp_eval_1_0" sampledSeconds="1879.15" nVehEntered="12" nVehLeft="15" nVehSeen="44" meanSpeed="9.48" meanTimeLoss="7.03" meanOccupancy="13.21" maxOccupancy="14.41" meanMaxJamLengthInVehicles="0.00" meanMaxJamLengthInMeters="0.00" maxJamLengthInVehicles="0" maxJamLengthInMeters="0.00" jamLengthInVehiclesSum="0" jamLengthInMetersSum="0.00" meanHaltingDuration="0.00" maxHaltingDuration="0.00" haltingDurationSum="0.00" meanIntervalHaltingDuration="0.00" maxIntervalHaltingDuration="0.00" intervalHaltingDurationSum="0.00" startedHalts="0.00" meanVehicleNumber="31.53" maxVehicleNumber="34" />
    <interval begin="1440.00" end="1500.00" id="ramp_eval_0_0" nVehContrib="13" flow="780.00" occupancy="10.81" speed="10.06" length="5.00" nVehEntered="13"/>
    <interval begin="1440.00" end="1500.00" id="ramp_eval_2_0" nVehContrib="15" flow="900.00" occupancy="12.47" speed="10.07" length="5.00" nVehEntered="15"/>
   <interval begin="1440.00" end="1500.00" id="ramp_eval_1_0" sampledSeconds="1569.27" nVehEntered="14" nVehLeft="20" nVehSeen="43" meanSpeed="10.10" meanTimeLoss="4.15" meanOccupancy="11.00" maxOccupancy="12.29" meanMaxJamLengthInVehicles="0.00" meanMaxJamLengthInMeters="0.00" maxJamLengthInVehicles="0" maxJamLengthInMeters="0.00" jamLengthInVehiclesSum="0" jamLengthInMetersSum="0.00" meanHaltingDuration="0.00" maxHaltingDuration="0.00" haltingDurationSum="0.00" meanIntervalHaltingDuration="0.00" maxIntervalHaltingDuration="0.00" intervalHaltingDurationSum="0.00" startedHalts="0.00" meanVehicleNumber="26.45" maxVehicleNumber="29" />
    <interval begin="1500.00" end="1560.00" id="ramp_eval_0_0" nVehContrib="12" flow="720.00" occupancy="10.44" speed="9.62" length="5.00" nVehEntered="12"/>
    <interval begin="1500.00" end="1560.00" id="ramp_eval_2_0" nVehContrib="11" flow="660.00" occupancy="9.28" speed="9.92" length="5.00" nVehEntered="11"/>
   <interval begin="1500.00" end="1560.00" id="ramp_eval_1_0" sampledSeconds="1542.31" nVehEntered="13" nVehLeft="9" nVehSeen="36" meanSpeed="9.84" meanTimeLoss="4.44" meanOccupancy="10.86" maxOccupancy="12.46" meanMaxJamLengthInVehicles="0.00" meanMaxJamLengthInMeters="0.00" maxJamLengthInVehicles="0" maxJamLengthInMeters="0.00" jamLengthInVehiclesSum="0" jamLengthInMetersSum="0.00" meanHaltingDuration="0.00" maxHaltingDuration="0.00" haltingDurationSum="0.00" meanIntervalHaltingDuration="0.00" maxIntervalHaltingDuration="0.00" intervalHaltingDurationSum="0.00" startedHalts="0.00" meanVehicleNumber="25.85" maxVehicleNumber="30" />
    <interval begin="1560.00" end="1620.00" id="ramp_eval_0_0" nVehContrib="14" flow="840.00" occupancy="11.94" speed="9.82" length="5.00" nVehEntered="14"/>
    <interval begin="1560.00" end="1620.00" id="ramp_eval_2_0" nVehContrib="11" flow="660.00" occupancy="9.51" speed="9.65" length="5.00" nVehEntered="11"/>
   <interval begin="1560.00" end="1620.00" id="ramp_eval_1_0" sampledSeconds="1575.90" nVehEntered="13" nVehLeft="13" nVehSeen="40" meanSpeed="9.66" meanTimeLoss="4.96" meanOccupancy="11.07" maxOccupancy="11.86" meanMaxJamLengthInVehicles="0.00" meanMaxJamLengthInMeters="0.00" maxJamLengthInVehicles="0" maxJamLengthInMeters="0.00" jamLengthInVehiclesSum="0" jamLengthInMetersSum="0.00" meanHaltingDuration="0.00" maxHaltingDuration="0.00" haltingDurationSum="0.00" meanIntervalHaltingDuration="0.00" maxIntervalHaltingDuration="0.00" intervalHaltingDurationSum="0.00" startedHalts="0.00" meanVehicleNumber="26.47" maxVehicleNumber="28" />
    <interval begin="1620.00" end="1680.00" id="ramp_eval_0_0" nVehContrib="14" flow="840.00" occupancy="11.40" speed="10.28" length="5.00" nVehEntered="14"/>
    <interval begin="1620.00" end="1680.00" id="ramp_eval_2_0" nVehContrib="17" flow="1020.00" occupancy="15.03" speed="9.44" length="5.00" nVehEntered="17"/>
   <interval begin="1620.00" end="1680.00" id="ramp_eval_1_0" sampledSeconds="1686.91" nVehEntered="14" nVehLeft="15" nVehSeen="41" meanSpeed="9.69" meanTimeLoss="5.04" meanOccupancy="11.86" maxOccupancy="12.71" meanMaxJamLengthInVehicles="0.00" meanMaxJamLengthInMeters="0.00" maxJamLengthInVehicles="0" maxJamLengthInMeters="0.00" jamLengthInVehiclesSum="0" jamLengthInMetersSum="0.00" meanHaltingDuration="0.00" maxHaltingDuration="0.00" haltingDurationSum="0.00" meanIntervalHaltingDuration="0.00" maxIntervalHaltingDuration="0.00" intervalHaltingDurationSum="0.00" startedHalts="0.00" meanVehicleNumber="28.35" maxVehicleNumber="30" />
    <interval begin="1680.00" end="1740.00" id="ramp_eval_0_0" nVehContrib="14" flow="840.00" occupancy="11.80" speed="9.93" length="5.00" nVehEntered="14"/>
    <interval begin="1680.00" end="1740.00" id="ramp_eval_2_0" nVehContrib="14" flow="840.00" occupancy="12.42" speed="9.41" length="5.00" nVehEntered="14"/>
   <interval begin="1680.00" end="1740.00" id="ramp_eval_1_0" sampledSeconds="1658.73" nVehEntered="14" nVehLeft="11" nVehSeen="40" meanSpeed="9.87" meanTimeLoss="4.99" meanOccupancy="11.68" maxOccupancy="13.14" meanMaxJamLengthInVehicles="0.00" meanMaxJamLengthInMeters="0.00" maxJamLengthInVehicles="0" maxJamLengthInMeters="0.00" jamLengthInVehiclesSum="0" jamLengthInMetersSum="0.00" meanHaltingDuration="0.00" maxHaltingDuration="0.00" haltingDurationSum="0.00" meanIntervalHaltingDuration="0.00" maxIntervalHaltingDuration="0.00" intervalHaltingDurationSum="0.00" startedHalts="0.00" meanVehicleNumber="27.82" maxVehicleNumber="31" />
    <interval begin="1740.00" end="1800.00" id="ramp_eval_0_0" nVehContrib="12" flow="720.00" occupancy="9.52" speed="10.53" length="5.00" nVehEntered="12"/>
    <interval begin="1740.00" end="1800.00" id="ramp_eval_2_0" nVehContrib="13" flow="780.00" occupancy="11.63" speed="9.35" length="5.00" nVehEntered="13"/>
   <interval begin="1740.00" end="1800.00" id="ramp_eval_1_0" sampledSeconds="1610.62" nVehEntered="12" nVehLeft="14" nVehSeen="41" meanSpeed="9.95" meanTimeLoss="5.34" meanOccupancy="11.32" maxOccupancy="12.93" meanMaxJamLengthInVehicles="0.00" meanMaxJamLengthInMeters="0.00" maxJamLengthInVehicles="0" maxJamLengthInMeters="0.00" jamLengthInVehiclesSum="0" jamLengthInMetersSum="0.00" meanHaltingDuration="0.00" maxHaltingDuration="0.00" haltingDurationSum="0.00" meanIntervalHaltingDuration="0.00" maxIntervalHaltingDuration="0.00" intervalHaltingDurationSum="0.00" startedHalts="0.00" meanVehicleNumber="27.03" maxVehicleNumber="31" />
    <interval begin="1800.00" end="1860.00" id="ramp_eval_0_0" nVehContrib="9" flow="540.00" occupancy="7.91" speed="9.50" length="5.00" nVehEntered="9"/>
    <interval begin="1800.00" end="1860.00" id="ramp_eval_2_0" nVehContrib="13" flow="780.00" occupancy="11.05" speed="9.83" length="5.00" nVehEntered="13"/>