<?xml version="1.0" encoding="UTF-8"?>

<!-- generated on 02/25/19 23:39:32 by Eclipse SUMO Version 1.0.1
<configuration xmlns:xsi="http://www.w3.org/2001/XMLSchema-instance" xsi:noNamespaceSchemaLocation="http://sumo.dlr.de/xsd/sumoConfiguration.xsd">

    <input>
        <net-file value="./project/ramp.net.xml"/>
        <route-files value="./project/ramp.rou.xml"/>
        <additional-files value="./project/ramp.add.xml"/>
    </input>

    <time>
        <begin value="0"/>
    </time>

    <report>
        <verbose value="true"/>
        <no-step-log value="true"/>
    </report>

    <traci_server>
        <remote-port value="62335"/>
    </traci_server>

    <random_number>
        <seed value="134183585"/>
    </random_number>

    <gui_only>
        <quit-on-end value="true"/>
        <start value="true"/>
    </gui_only>

</configuration>
-->

<detector xmlns:xsi="http://www.w3.org/2001/XMLSchema-instance" xsi:noNamespaceSchemaLocation="http://sumo.dlr.de/xsd/det_e1_file.xsd">
    <interval begin="0.00" end="60.00" id="ramp_eval_0_0" nVehContrib="2" flow="120.00" occupancy="1.57" speed="10.65" length="5.00" nVehEntered="2"/>
    <interval begin="0.00" end="60.00" id="ramp_eval_2_0" nVehContrib="0" flow="0.00" occupancy="0.00" speed="-1.00" length="-1.00" nVehEntered="0"/>
   <interval begin="0.00" end="60.00" id="mainline_up_0_2" sampledSeconds="0.00" nVehEntered="0" nVehLeft="0" nVehSeen="0" meanSpeed="-1.00" meanTimeLoss="-1.00" meanOccupancy="0.00" maxOccupancy="0.00" meanMaxJamLengthInVehicles="0.00" meanMaxJamLengthInMeters="0.00" maxJamLengthInVehicles="0" maxJamLengthInMeters="0.00" jamLengthInVehiclesSum="0" jamLengthInMetersSum="0.00" meanHaltingDuration="0.00" maxHaltingDuration="0.00" haltingDurationSum="0.00" meanIntervalHaltingDuration="0.00" maxIntervalHaltingDuration="0.00" intervalHaltingDurationSum="0.00" startedHalts="0.00" meanVehicleNumber="0.00" maxVehicleNumber="0" />
   <interval begin="0.00" end="60.00" id="mainline_up_1_2" sampledSeconds="0.00" nVehEntered="0" nVehLeft="0" nVehSeen="0" meanSpeed="-1.00" meanTimeLoss="-1.00" meanOccupancy="0.00" maxOccupancy="0.00" meanMaxJamLengthInVehicles="0.00" meanMaxJamLengthInMeters="0.00" maxJamLengthInVehicles="0" maxJamLengthInMeters="0.00" jamLengthInVehiclesSum="0" jamLengthInMetersSum="0.00" meanHaltingDuration="0.00" maxHaltingDuration="0.00" haltingDurationSum="0.00" meanIntervalHaltingDuration="0.00" maxIntervalHaltingDuration="0.00" intervalHaltingDurationSum="0.00" startedHalts="0.00" meanVehicleNumber="0.00" maxVehicleNumber="0" />
   <interval begin="0.00" end="60.00" id="mainline_up_2_2" sampledSeconds="0.00" nVehEntered="0" nVehLeft="0" nVehSeen="0" meanSpeed="-1.00" meanTimeLoss="-1.00" meanOccupancy="0.00" maxOccupancy="0.00" meanMaxJamLengthInVehicles="0.00" meanMaxJamLengthInMeters="0.00" maxJamLengthInVehicles="0" maxJamLengthInMeters="0.00" jamLengthInVehiclesSum="0" jamLengthInMetersSum="0.00" meanHaltingDuration="0.00" maxHaltingDuration="0.00" haltingDurationSum="0.00" meanIntervalHaltingDuration="0.00" maxIntervalHaltingDuration="0.00" intervalHaltingDurationSum="0.00" startedHalts="0.00" meanVehicleNumber="0.00" maxVehicleNumber="0" />
    <interval begin="60.00" end="120.00" id="ramp_eval_0_0" nVehContrib="18" flow="1080.00" occupancy="15.83" speed="9.54" length="5.00" nVehEntered="18"/>
    <interval begin="60.00" end="120.00" id="ramp_eval_2_0" nVehContrib="0" flow="0.00" occupancy="0.00" speed="-1.00" length="-1.00" nVehEntered="0"/>
   <interval begin="60.00" end="120.00" id="mainline_up_0_2" sampledSeconds="332.07" nVehEntered="16" nVehLeft="6" nVehSeen="16" meanSpeed="21.63" meanTimeLoss="0.48" meanOccupancy="3.50" maxOccupancy="6.28" meanMaxJamLengthInVehicles="0.00" meanMaxJamLengthInMeters="0.00" maxJamLengthInVehicles="0" maxJamLengthInMeters="0.00" jamLengthInVehiclesSum="0" jamLengthInMetersSum="0.00" meanHaltingDuration="0.00" maxHaltingDuration="0.00" haltingDurationSum="0.00" meanIntervalHaltingDuration="0.00" maxIntervalHaltingDuration="0.00" intervalHaltingDurationSum="0.00" startedHalts="0.00" meanVehicleNumber="5.70" maxVehicleNumber="10" />
   <interval begin="60.00" end="120.00" id="mainline_up_1_2" sampledSeconds="290.85" nVehEntered="18" nVehLeft="8" nVehSeen="18" meanSpeed="22.58" meanTimeLoss="0.40" meanOccupancy="3.10" maxOccupancy="6.91" meanMaxJamLengthInVehicles="0.00" meanMaxJamLengthInMeters="0.00" maxJamLengthInVehicles="0" maxJamLengthInMeters="0.00" jamLengthInVehiclesSum="0" jamLengthInMetersSum="0.00" meanHaltingDuration="0.00" maxHaltingDuration="0.00" haltingDurationSum="0.00" meanIntervalHaltingDuration="0.00" maxIntervalHaltingDuration="0.00" intervalHaltingDurationSum="0.00" startedHalts="0.00" meanVehicleNumber="4.98" maxVehicleNumber="11" />
   <interval begin="60.00" end="120.00" id="mainline_up_2_2" sampledSeconds="240.56" nVehEntered="15" nVehLeft="3" nVehSeen="15" meanSpeed="24.20" meanTimeLoss="0.53" meanOccupancy="2.54" maxOccupancy="7.54" meanMaxJamLengthInVehicles="0.00" meanMaxJamLengthInMeters="0.00" maxJamLengthInVehicles="0" maxJamLengthInMeters="0.00" jamLengthInVehiclesSum="0" jamLengthInMetersSum="0.00" meanHaltingDuration="0.00" maxHaltingDuration="0.00" haltingDurationSum="0.00" meanIntervalHaltingDuration="0.00" maxIntervalHaltingDuration="0.00" intervalHaltingDurationSum="0.00" startedHalts="0.00" meanVehicleNumber="4.17" maxVehicleNumber="12" />
    <interval begin="120.00" end="180.00" id="ramp_eval_0_0" nVehContrib="16" flow="960.00" occupancy="14.78" speed="9.10" length="5.00" nVehEntered="16"/>
    <interval begin="120.00" end="180.00" id="ramp_eval_2_0" nVehContrib="12" flow="720.00" occupancy="11.06" speed="9.09" length="5.00" nVehEntered="12"/>
   <interval begin="120.00" end="180.00" id="mainline_up_0_2" sampledSeconds="691.35" nVehEntered="19" nVehLeft="16" nVehSeen="29" meanSpeed="18.63" meanTimeLoss="1.43" meanOccupancy="7.21" maxOccupancy="9.42" meanMaxJamLengthInVehicles="0.00" meanMaxJamLengthInMeters="0.00" maxJamLengthInVehicles="0" maxJamLengthInMeters="0.00" jamLengthInVehiclesSum="0" jamLengthInMetersSum="0.00" meanHaltingDuration="0.00" maxHaltingDuration="0.00" haltingDurationSum="0.00" meanIntervalHaltingDuration="0.00" maxIntervalHaltingDuration="0.00" intervalHaltingDurationSum="0.00" startedHalts="0.00" meanVehicleNumber="11.75" maxVehicleNumber="15" />
   <interval begin="120.00" end="180.00" id="mainline_up_1_2" sampledSeconds="808.70" nVehEntered="29" nVehLeft="21" nVehSeen="39" meanSpeed="20.09" meanTimeLoss="1.62" meanOccupancy="8.45" maxOccupancy="11.93" meanMaxJamLengthInVehicles="0.00" meanMaxJamLengthInMeters="0.00" maxJamLengthInVehicles="0" maxJamLengthInMeters="0.00" jamLengthInVehiclesSum="0" jamLengthInMetersSum="0.00" meanHaltingDuration="0.00" maxHaltingDuration="0.00" haltingDurationSum="0.00" meanIntervalHaltingDuration="0.00" maxIntervalHaltingDuration="0.00" intervalHaltingDurationSum="0.00" startedHalts="0.00" meanVehicleNumber="13.85" maxVehicleNumber="19" />
   <interval begin="120.00" end="180.00" id="mainline_up_2_2" sampledSeconds="941.81" nVehEntered="33" nVehLeft="20" nVehSeen="45" meanSpeed="20.90" meanTimeLoss="2.73" meanOccupancy="9.88" maxOccupancy="15.70" meanMaxJamLengthInVehicles="0.00" meanMaxJamLengthInMeters="0.00" maxJamLengthInVehicles="0" maxJamLengthInMeters="0.00" jamLengthInVehiclesSum="0" jamLengthInMetersSum="0.00" meanHaltingDuration="0.00" maxHaltingDuration="0.00" haltingDurationSum="0.00" meanIntervalHaltingDuration="0.00" maxIntervalHaltingDuration="0.00" intervalHaltingDurationSum="0.00" startedHalts="0.00" meanVehicleNumber="16.08" maxVehicleNumber="25" />
    <interval begin="180.00" end="240.00" id="ramp_eval_0_0" nVehContrib="19" flow="1140.00" occupancy="17.87" speed="9.09" length="5.00" nVehEntered="20"/>
    <interval begin="180.00" end="240.00" id="ramp_eval_2_0" nVehContrib="17" flow="1020.00" occupancy="14.86" speed="9.57" length="5.00" nVehEntered="17"/>
   <interval begin="180.00" end="240.00" id="mainline_up_0_2" sampledSeconds="749.74" nVehEntered="20" nVehLeft="23" nVehSeen="33" meanSpeed="18.03" meanTimeLoss="2.22" meanOccupancy="7.79" maxOccupancy="8.79" meanMaxJamLengthInVehicles="0.00" meanMaxJamLengthInMeters="0.00" maxJamLengthInVehicles="0" maxJamLengthInMeters="0.00" jamLengthInVehiclesSum="0" jamLengthInMetersSum="0.00" meanHaltingDuration="0.00" maxHaltingDuration="0.00" haltingDurationSum="0.00" meanIntervalHaltingDuration="0.00" maxIntervalHaltingDuration="0.00" intervalHaltingDurationSum="0.00" startedHalts="0.00" meanVehicleNumber="12.77" maxVehicleNumber="15" />
   <interval begin="180.00" end="240.00" id="mainline_up_1_2" sampledSeconds="1076.94" nVehEntered="37" nVehLeft="37" nVehSeen="55" meanSpeed="18.74" meanTimeLoss="2.65" meanOccupancy="11.18" maxOccupancy="12.56" meanMaxJamLengthInVehicles="0.00" meanMaxJamLengthInMeters="0.00" maxJamLengthInVehicles="0" maxJamLengthInMeters="0.00" jamLengthInVehiclesSum="0" jamLengthInMetersSum="0.00" meanHaltingDuration="0.00" maxHaltingDuration="0.00" haltingDurationSum=nSum="0.00" meanIntervalHaltingDuration="0.00" maxIntervalHaltingDuration="0.00" intervalHaltingDurationSum="0.00" startedHalts="0.00" meanVehicleNumber="17.70" maxVehicleNumber="23" />
   <interval begin="180.00" end="240.00" id="mainline_up_2_2" sampledSeconds="1330.71" nVehEntered="37" nVehLeft="38" nVehSeen="57" meanSpeed="20.64" meanTimeLoss="2.50" meanOccupancy="13.86" maxOccupancy="16.33" meanMaxJamLengthInVehicles="0.00" meanMaxJamLengthInMeters="0.00" maxJamLengthInVehicles="0" maxJamLengthInMeters="0.00" jamLengthInVehiclesSum="0" jamLengthInMetersSum="0.00" meanHaltingDuration="0.00" maxHaltingDuration="0.00" haltingDurationSum="0.00" meanIntervalHaltingDuration="0.00" maxIntervalHaltingDuration="0.00" intervalHaltingDurationSum="0.00" startedHalts="0.00" meanVehicleNumber="22.78" maxVehicleNumber="26" />
    <interval begin="240.00" end="300.00" id="ramp_eval_0_0" nVehContrib="19" flow="1140.00" occupancy="17.17" speed="9.68" length="5.00" nVehEntered="20"/>
    <interval begin="240.00" end="300.00" id="ramp_eval_2_0" nVehContrib="26" flow="1560.00" occupancy="26.24" speed="8.32" length="5.00" nVehEntered="26"/>
   <interval begin="240.00" end="300.00" id="mainline_up_0_2" sampledSeconds="866.53" nVehEntered="22" nVehLeft="20" nVehSeen="36" meanSpeed="17.30" meanTimeLoss="3.27" meanOccupancy="9.03" maxOccupancy="11.83" meanMaxJamLengthInVehicles="0.00" meanMaxJamLengthInMeters="0.00" maxJamLengthInVehicles="0" maxJamLengthInMeters="0.00" jamLengthInVehiclesSum="0" jamLengthInMetersSum="0.00" meanHaltingDuration="0.00" maxHaltingDuration="0.00" haltingDurationSum="0.00" meanIntervalHaltingDuration="0.00" maxIntervalHaltingDuration="0.00" intervalHaltingDurationSum="0.00" startedHalts="0.00" meanVehicleNumber="14.78" maxVehicleNumber="19" />
   <interval begin="240.00" end="300.00" id="mainline_up_1_2" sampledSeconds="1125.12" nVehEntered="37" nVehLeft="31" nVehSeen="52" meanSpeed="18.93" meanTimeLoss="2.63" meanOccupancy="11.70" maxOccupancy="14.24" meanMaxJamLengthInVehicles="0.00" meanMaxJamLengthInMeters="0.00" maxJamLengthInVehicles="0" maxJamLengthInMeters="0.00" jamLengthInVehiclesSum="0" jamLengthInMetersSum="0.00" meanHaltingDuration="0.00" maxHaltingDuration="0.00" haltingDurationSum="0.00" meanIntervalHaltingDuration="0.00" maxIntervalHaltingDuration="0.00" intervalHaltingDurationSum="0.00" startedHalts="0.00" meanVehicleNumber="19.25" maxVehicleNumber="23" />
   <interval begin="240.00" end="300.00" id="mainline_up_2_2" sampledSeconds="1292.74" nVehEntered="35" nVehLeft="34" nVehSeen="54" meanSpeed="20.32" meanTimeLoss="3.11" meanOccupancy="13.46" maxOccupancy="16.33" meanMaxJamLengthInVehicles="0.00" meanMaxJamLengthInMeters="0.00" maxJamLengthInVehicles="0" maxJamLengthInMeters="0.00" jamLengthInVehiclesSum="0" jamLengthInMetersSum="0.00" meanHaltingDuration="0.00" maxHaltingDuration="0.00" haltingDurationSum="0.00" meanIntervalHaltingDuration="0.00" maxIntervalHaltingDuration="0.00" intervalHaltingDurationSum="0.00" startedHalts="0.00" meanVehicleNumber="22.05" maxVehicleNumber="26" />
nterval begin="300.00" end="360.00" id="ramp_eval_0_0" nVehContrib="21" flow="1260.00" occupancy="19.92" speed="8.88" length="5.00" nVehEntered="21"/>
    <interval begin="300.00" end="360.00" id="ramp_eval_2_0" nVehContrib="15" flow="900.00" occupancy="12.42" speed="9.67" length="5.00" nVehEntered="14"/>
   <interval begin="300.00" end="360.00" id="mainline_up_0_2" sampledSeconds="957.00" nVehEntered="28" nVehLeft="26" nVehSeen="40" meanSpeed="15.16" meanTimeLoss="2.12" meanOccupancy="9.89" maxOccupancy="14.16" meanMaxJamLengthInVehicles="0.13" meanMaxJamLengthInMeters="0.38" maxJamLengthInVehicles="2" maxJamLengthInMeters="13.68" jamLengthInVehiclesSum="8" jamLengthInMetersSum="22.98" meanHaltingDuration="2.50" maxHaltingDuration="3.00" haltingDurationSum="5.00" meanIntervalHaltingDuration="2.50" maxIntervalHaltingDuration="3.00" intervalHaltingDurationSum="5.00" startedHalts="4.00" meanVehicleNumber="16.12" maxVehicleNumber="23" />
   <interval begin="300.00" end="360.00" id="mainline_up_1_2" sampledSeconds="1255.76" nVehEntered="56" nVehLeft="50" nVehSeen="73" meanSpeed="16.11" meanTimeLoss="1.54" meanOccupancy="13.08" maxOccupancy="16.33" meanMaxJamLengthInVehicles="0.00" meanMaxJamLengthInMeters="0.00" maxJamLengthInVehicles="0" maxJamLengthInMeters="0.00" jamLengthInVehiclesSum="0" jamLengthInMetersSum="0.00" meanHaltingDuration="0.00" maxHaltingDuration="0.00" haltingDurationSum="0.00" meanIntervalHaltingDuration="0.00" maxIntervalHaltingDuration="0.00" intervalHaltingDurationSum="0.00" startedHalts="0.00" meanVehicleNumber="21.38" maxVehicleNumber="26" />
   <interval begin="300.00" end="360.00" id="mainline_up_2_2" sampledSeconds="1358.39" nVehEntered="45" nVehLeft="42" nVehSeen="68" meanSpeed="16.23" meanTimeLoss="2.13" meanOccupancy="14.15" maxOccupancy="16.96" meanMaxJamLengthInVehicles="0.00" meanMaxJamLengthInMeters="0.00" maxJamLengthInVehicles="0" maxJamLengthInMeters="0.00" jamLengthInVehiclesSum="0" jamLengthInMetersSum="0.00" meanHaltingDuration="0.00" maxHaltingDuration="0.00" haltingDurationSum="0.00" meanIntervalHaltingDuration="0.00" maxIntervalHaltingDuration="0.00" intervalHaltingDurationSum="0.00" startedHalts="0.00" meanVehicleNumber="23.17" maxVehicleNumber="28" />
    <interval begin="360.00" end="420.00" id="ramp_eval_0_0" nVehContrib="19" flow="1140.00" occupancy="16.08" speed="9.87" length="5.00" nVehEntered="19"/>
    <interval begin="360.00" end="420.00" id="ramp_eval_2_0" nVehContrib="21" flow="1260.00" occupancy="22.33" speed="7.88" length="5.00" nVehEntered="21"/>
   <interval begin="360.00" end="420.00" id="mainline_up_0_2" sampledSeconds="802.25" nVehEntered="25" nVehLeft="22" nVehSeen="39" meanSpeed="17.25" meanTimeLoss="2.18" meanOccupancy="8.34" maxOccupancy="10.05" meanMaxJamLengthInVehicles="0.00" meanMaxJamLengthInMeters="0.00" maxJamLengthInVehicles="0" maxJamLengthInMeters="0.00" jamLengthInVehiclesSum="0" jamLengthInMetersSum="0.00" meanHaltingDuration="1.00" maxHaltingDuration="1.00" haltingDurationSum="1.00" meanIntervalHaltingDuration="1.00" maxIntervalHaltingDuration="1.00" intervalHaltingDurationSum="1.00" startedHalts="1.00" meanVehicleNumber="13.70" maxVehicleNumber="17" />
   <interval begin="360.00" end="420.00" id="mainline_up_1_2" sampledSeconds="1257.88" nVehEntered="36" nVehLeft="40" nVehSeen="59" meanSpeed="18.75" meanTimeLoss="2.48" meanOccupancy="13.06" maxOccupancy="15.08" meanMaxJamLengthInVehicles="0.00" meanMaxJamLengthInMeters="0.00" maxJamLengthInVehicles="0" maxJamLengthInMeters="0.00" jamLengthInVehiclesSum="0" jamLengthInMetersSum="0.00" meanHaltingDuration="0.00" maxHaltingDuration="0.00" haltingDurationSum="0.00" meanIntervalHaltingDuration="0.00" maxIntervalHaltingDuration="0.00" intervalHaltingDurationSum="0.00" startedHalts="0.00" meanVehicleNumber="21.50" maxVehicleNumber="25" />
   <interval begin="360.00" end="420.00" id="mainline_up_2_2" sampledSeconds="1441.75" nVehEntered="35" nVehLeft="39" nVehSeen="61" meanSpeed="20.33" meanTimeLoss="2.07" meanOccupancy="14.97" maxOccupancy="17.09" meanMaxJamLengthInVehicles="0.00" meanMaxJamLengthInMeters="0.00" maxJamLengthInVehicles="0" maxJamLengthInMeters="0.00" jamLengthInVehiclesSum="0" jamLengthInMetersSum="0.00" meanHaltingDuration="0.00" maxHaltingDuration="0.00" haltingDurationSum="0.00" meanIntervalHaltingDuration="0.00" maxIntervalHaltingDuration="0.00" intervalHaltingDurationSum="0.00" startedHalts="0.00" meanVehicleNumber="24.67" maxVehicleNumber="28" />
    <interval begin="420.00" end="480.00" id="ramp_eval_0_0" nVehContrib="18" flow="1080.00" occupancy="17.67" speed="8.52" length="5.00" nVehEntered="18"/>
    <interval begin="420.00" end="480.00" id="ramp_eval_2_0" nVehContrib="28" flow="1680.00" occupancy="29.75" speed="8.17" length="5.00" nVehEntered="28"/>
   <interval begin="420.00" end="480.00" id="mainline_up_0_2" sampledSeconds="1200.74" nVehEntered="28" nVehLeft="21" nVehSeen="45" meanSpeed="13.84" meanTimeLoss="4.24" meanOccupancy="12.45" maxOccupancy="17.59" meanMaxJamLengthInVehicles="0.25" meanMaxJamLengthInMeters="1.26" maxJamLengthInVehicles="2" maxJamLengthInMeters="13.73" jamLengthInVehiclesSum="15" jamLengthInMetersSum="75.58" meanHaltingDuration="1.92" maxHaltingDuration="4.00" haltingDurationSum="25.00" meanIntervalHaltingDuration="1.92" maxIntervalHaltingDuration="4.00" intervalHaltingDurationSum="25.00" startedHalts="14.00" meanVehicleNumber="20.18" maxVehicleNumber="28" />
   <interval begin="420.00" end="480.00" id="mainline_up_1_2" sampledSeconds="1377.49" nVehEntered="51" nVehLeft="48" nVehSeen="70" meanSpeed="15.09" meanTimeLoss="2.48" meanOccupancy="14.35" maxOccupancy="16.33" meanMaxJamLengthInVehicles="0.00" meanMaxJamLengthInMeters="0.00" maxJamLengthInVehicles="0" maxJamLengthInMeters="0.00" jamLengthInVehiclesSum="0" jamLengthInMetersSum="0.00" meanHaltingDuration="0.00" maxHaltingDuration="0.00" haltingDurationSum="0.00" meanIntervalHaltingDuration="0.00" maxIntervalHaltingDuration="0.00" intervalHaltingDurationSum="0.00" startedHalts="0.00" meanVehicleNumber="23.45" maxVehicleNumber="26" />
   <interval begin="420.00" end="480.00" id="mainline_up_2_2" sampledSeconds="1352.60" nVehEntered="42" nVehLeft="38" nVehSeen="64" meanSpeed="16.14" meanTimeLoss="2.36" meanOccupancy="14.10" maxOccupancy="16.33" meanMaxJamLengthInVehicles="0.00" meanMaxJamLengthInMeters="0.00" maxJamLengthInVehicles="0" maxJamLengthInMeters="0.00" jamLengthInVehiclesSum="0" jamLengthInMetersSum="0.00" meanHaltingDuration="0.00" maxHaltingDuration="0.00" haltingDurationSum="0.00" meanIntervalHaltingDuration="0.00" maxIntervalHaltingDuration="0.00" intervalHaltingDurationSum="0.00" startedHalts="0.00" meanVehicleNumber="23.03" maxVehicleNumber="26" />
    <interval begin="480.00" end="540.00" id="ramp_eval_0_0" nVehContrib="21" flow="1260.00" occupancy="19.70" speed="8.91" length="5.00" nVehEntered="21"/>
    <interval begin="480.00" end="540.00" id="ramp_eval_2_0" nVehContrib="10" flow="600.00" occupancy="11.60" speed="7.54" length="5.00" nVehEntered="10"/>
   <interval begin="480.00" end="540.00" id="mainline_up_0_2" sampledSeconds="1181.83" nVehEntered="32" nVehLeft="31" nVehSeen="56" meanSpeed="12.47" meanTimeLoss="3.40" meanOccupancy="12.24" maxOccupancy="15.70" meanMaxJamLengthInVehicles="0.02" meanMaxJamLengthInMeters="0.06" maxJamLengthInVehicles="1" maxJamLengthInMeters="3.34" jamLengthInVehiclesSum="1" jamLengthInMetersSum="3.34" meanHaltingDuration="2.00" maxHaltingDuration="2.00" haltingDurationSum="2.00" meanIntervalHaltingDuration="2.00" maxIntervalHaltingDuration="2.00" intervalHaltingDurationSum="2.00" startedHalts="1.00" meanVehicleNumber="20.03" maxVehicleNumber="26" />
   <interval begin="480.00" end="540.00" id="mainline_up_1_2" sampledSeconds="1401.37" nVehEntered="58" nVehLeft="52" nVehSeen="80" meanSpeed="13.46" meanTimeLoss="2.45" meanOccupancy="14.52" maxOccupancy="17.59" meanMaxJamLengthInVehicles="0.00" meanMaxJamLengthInMeters="0.00" maxJamLengthInVehicles="0" maxJamLengthInMeters="0.00" jamLengthInVehiclesSum="0" jamLengthInMetersSum="0.00" meanHaltingDuration="0.00" maxHaltingDuration="0.00" haltingDurationSum="0.00" meanIntervalHaltingDuration="0.00" maxIntervalHaltingDuration="0.00" intervalHaltingDurationSum="0.00" startedHalts="0.00" meanVehicleNumber="23.78" maxVehicleNumber="29" />
   <interval begin="480.00" end="540.00" id="mainline_up_2_2" sampledSeconds="1395.75" nVehEntered="40" nVehLeft="49" nVehSeen="66" meanSpeed="14.34" meanTimeLoss="2.66" meanOccupancy="14.55" maxOccupancy="16.96" meanMaxJamLengthInVehicles="0.00" meanMaxJamLengthInMeters="0.00" maxJamLengthInVehicles="0" maxJamLengthInMeters="0.00" jamLengthInVehiclesSum="0" jamLengthInMetersSum="0.00" meanHaltingDuration="0.00" maxHaltingDuration="0.00" haltingDurationSum="0.00" meanIntervalHaltingDuration="0.00" maxIntervalHaltingDuration="0.00" intervalHaltingDurationSum="0.00" startedHalts="0.00" meanVehicleNumber="23.83" maxVehicleNumber="28" />
    <interval begin="540.00" end="600.00" id="ramp_eval_0_0" nVehContrib="19" flow="1140.00" occupancy="15.87" speed="10.02" length="5.00" nVehEntered="19"/>
    <interval begin="540.00" end="600.00" id="ramp_eval_2_0" nVehContrib="25" flow="1500.00" occupancy="25.27" speed="8.28" length="5.00" nVehEntered="25"/>
   <interval begin="540.00" end="600.00" id="mainline_up_0_2" sampledSeconds="1118.10" nVehEntered="20" nVehLeft="29" nVehSeen="45" meanSpeed="15.37" meanTimeLoss="5.76" meanOccupancy="11.57" maxOccupancy="16.33" meanMaxJamLengthInVehicles="0.00" meanMaxJamLengthInMeters="0.00" maxJamLengthInVehicles="0" maxJamLengthInMeters="0.00" jamLengthInVehiclesSum="0" jamLengthInMetersSum="0.00" meanHaltingDuration="0.00" maxHaltingDuration="0.00" haltingDurationSum="0.00" meanIntervalHaltingDuration="0.00" maxIntervalHaltingDuration="0.00" intervalHaltingDurationSum="0.00" startedHalts="0.00" meanVehicleNumber="18.93" maxVehicleNumber="26" />
   <interval begin="540.00" end="600.00" id="mainline_up_1_2" sampledSeconds="1503.33" nVehEntered="34" nVehLeft="44" nVehSeen="62" meanSpeed="16.98" meanTimeLoss="3.94" meanOccupancy="15.64" maxOccupancy="18.22" meanMaxJamLengthInVehicles="0.00" meanMaxJamLengthInMeters="0.00" maxJamLengthInVehicles="0" maxJamLengthInMeters="0.00" jamLengthInVehiclesSum="0" jamLengthInMetersSum="0.00" meanHaltingDuration="0.00" maxHaltingDuration="0.00" haltingDurationSum="0.00" meanIntervalHaltingDuration="0.00" maxIntervalHaltingDuration="0.00" intervalHaltingDurationSum="0.00" startedHalts="0.00" meanVehicleNumber="25.57" maxVehicleNumber="30" />
   <interval begin="540.00" end="600.00" id="mainline_up_2_2" sampledSeconds="1493.75" nVehEntered="43" nVehLeft="33" nVehSeen="60" meanSpeed="17.88" meanTimeLoss="4.10" meanOccupancy="15.56" maxOccupancy="17.59" meanMaxJamLengthInVehicles="0.00" meanMaxJamLengthInMeters="0.00" maxJamLengthInVehicles="0" maxJamLengthInMeters="0.00" jamLengthInVehiclesSum="0" jamLengthInMetersSum="0.00" meanHaltingDuration="0.00" maxHaltingDuration="0.00" haltingDurationSum="0.00" meanIntervalHaltingDuration="0.00" maxIntervalHaltingDuration="0.00" intervalHaltingDurationSum="0.00" startedHalts="0.00" meanVehicleNumber="25.45" maxVehicleNumber="28" />
    <interval begin="600.00" end="660.00" id="ramp_eval_0_0" nVehContrib="19" flow="1140.00" occupancy="16.16" speed="10.17" length="5.00" nVehEntered="20"/>
    <interval begin="600.00" end="660.00" id="ramp_eval_2_0" nVehContrib="22" flow="1320.00" occupancy="20.86" speed="8.82" length="5.00" nVehEntered="22"/>
   <interval begin="600.00" end="660.00" id="mainline_up_0_2" sampledSeconds="1116.49" nVehEntered="38" nVehLeft="31" nVehSeen="54" meanSpeed="13.34" meanTimeLoss="3.37" meanOccupancy="11.60" maxOccupancy="15.08" meanMaxJamLengthInVehicles="0.30" meanMaxJamLengthInMeters="1.48" maxJamLengthInVehicles="2" maxJamLengthInMeters="12.77" jamLengthInVehiclesSum="18" jamLengthInMetersSum="88.67" meanHaltingDuration="8.00" maxHaltingDuration="12.00" haltingDurationSum="16.00" meanIntervalHaltingDuration="8.00" maxIntervalHaltingDuration="12.00" intervalHaltingDurationSum="16.00" startedHalts="4.00" meanVehicleNumber="18.88" maxVehicleNumber="24" />
   <interval begin="600.00" end="660.00" id="mainline_up_1_2" sampledSeconds="1325.67" nVehEntered="59" nVehLeft="52" nVehSeen="77" meanSpeed="14.11" meanTimeLoss="2.71" meanOccupancy="13.76" maxOccupancy="16.96" meanMaxJamLengthInVehicles="0.00" meanMaxJamLengthInMeters="0.00" maxJamLengthInVehicles="0" maxJamLengthInMeters="0.00" jamLengthInVehiclesSum="0" jamLengthInMetersSum="0.00" meanHaltingDuration="1.00" maxHaltingDuration="1.00" haltingDurationSum="2.00" meanIntervalHaltingDuration="1.00" maxIntervalHaltingDuration="1.00" intervalHaltingDurationSum="2.00" startedHalts="2.00" meanVehicleNumber="22.52" maxVehicleNumber="28" />
   <interval begin="600.00" end="660.00" id="mainline_up_2_2" sampledSeconds="1604.78" nVehEntered="42" nVehLeft="41" nVehSeen="69" meanSpeed="14.33" meanTimeLoss="3.71" meanOccupancy="16.72" maxOccupancy="18.22" meanMaxJamLengthInVehicles="0.00" meanMaxJamLengthInMeters="0.00" maxJamLengthInVehicles="0" maxJamLengthInMeters="0.00" jamLengthInVehiclesSum="0" jamLengthInMetersSum="0.00" meanHaltingDuration="0.00" maxHaltingDuration="0.00" haltingDurationSum="0.00" meanIntervalHaltingDuration="0.00" maxIntervalHaltingDuration="0.00" intervalHaltingDurationSum="0.00" startedHalts="0.00" meanVehicleNumber="27.32" maxVehicleNumber="30" />
    <interval begin="660.00" end="720.00" id="ramp_eval_0_0" nVehContrib="16" flow="960.00" occupancy="12.81" speed="10.01" length="5.00" nVehEntered="15"/>
    <interval begin="660.00" end="720.00" id="ramp_eval_2_0" nVehContrib="16" flow="960.00" occupancy="13.72" speed="9.73" length="5.00" nVehEntered="16"/>
   <interval begin="660.00" end="720.00" id="mainline_up_0_2" sampledSeconds="1304.98" nVehEntered="31" nVehLeft="32" nVehSeen="54" meanSpeed="12.81" meanTimeLoss="4.47" meanOccupancy="13.49" maxOccupancy="15.70" meanMaxJamLengthInVehicles="0.00" meanMaxJamLengthInMeters="0.00" maxJamLengthInVehicles="0" maxJamLengthInMeters="0.00" jamLengthInVehiclesSum="0" jamLengthInMetersSum="0.00" meanHaltingDuration="0.00" maxHaltingDuration="0.00" haltingDurationSum="0.00" meanIntervalHaltingDuration="0.00" maxIntervalHaltingDuration="0.00" intervalHaltingDurationSum="0.00" startedHalts="0.00" meanVehicleNumber="22.00" maxVehicleNumber="26" />
   <interval begin="660.00" end="720.00" id="mainline_up_1_2" sampledSeconds="1669.94" nVehEntered="52" nVehLeft="49" nVehSeen="77" meanSpeed="12.88" meanTimeLoss="4.31" meanOccupancy="17.38" maxOccupancy="19.47" meanMaxJamLengthInVehicles="0.02" meanMaxJamLengthInMeters="0.08" maxJamLengthInVehicles="1" maxJamLengthInMeters="4.65" jamLengthInVehiclesSum="1" jamLengthInMetersSum="4.65" meanHaltingDuration="2.00" maxHaltingDuration="2.00" haltingDurationSum="2.00" meanIntervalHaltingDuration="1.00" maxIntervalHaltingDuration="1.00" intervalHaltingDurationSum="1.00" startedHalts="1.00" meanVehicleNumber="28.28" maxVehicleNumber="31" />
   <interval begin="660.00" end="720.00" id="mainline_up_2_2" sampledSeconds="1759.21" nVehEntered="38" nVehLeft="35" nVehSeen="66" meanSpeed="12.81" meanTimeLoss="6.07" meanOccupancy="18.36" maxOccupancy="19.47" meanMaxJamLengthInVehicles="0.00" meanMaxJamLengthInMeters="0.00" maxJamLengthInVehicles="0" maxJamLengthInMeters="0.00" jamLengthInVehiclesSum="0" jamLengthInMetersSum="0.00" meanHaltingDuration="0.00" maxHaltingDuration="0.00" haltingDurationSum="0.00" meanIntervalHaltingDuration="0.00" maxIntervalHaltingDuration="0.00" intervalHaltingDurationSum="0.00" startedHalts="0.00" meanVehicleNumber="29.78" maxVehicleNumber="32" />
    <interval begin="720.00" end="780.00" id="ramp_eval_0_0" nVehContrib="22" flow="1320.00" occupancy="19.49" speed="9.44" length="5.00" nVehEntered="22"/>
    <interval begin="720.00" end="780.00" id="ramp_eval_2_0" nVehContrib="19" flow="1140.00" occupancy="16.31" speed="9.73" length="5.00" nVehEntered="19"/>
   <interval begin="720.00" end="780.00" id="mainline_up_0_2" sampledSeconds="1576.42" nVehEntered="29" nVehLeft="23" nVehSeen="51" meanSpeed="11.02" meanTimeLoss="8.52" meanOccupancy="16.32" maxOccupancy="18.84" meanMaxJamLengthInVehicles="0.72" meanMaxJamLengthInMeters="4.30" maxJamLengthInVehicles="4" maxJamLengthInMeters="30.04" jamLengthInVehiclesSum="43" jamLengthInMetersSum="257.94" meanHaltingDuration="2.34" maxHaltingDuration="6.00" haltingDurationSum="68.00" meanIntervalHaltingDuration="2.34" maxIntervalHaltingDuration="6.00" intervalHaltingDurationSum="68.00" startedHalts="32.00" meanVehicleNumber="26.48" maxVehicleNumber="31" />
   <interval begin="720.00" end="780.00" id="mainline_up_1_2" sampledSeconds="1833.68" nVehEntered="50" nVehLeft="46" nVehSeen="78" meanSpeed="12.08" meanTimeLoss="5.59" meanOccupancy="19.07" maxOccupancy="21.36" meanMaxJamLengthInVehicles="0.00" meanMaxJamLengthInMeters="0.00" maxJamLengthInVehicles="0" maxJamLengthInMeters="0.00" jamLengthInVehiclesSum="0" jamLengthInMetersSum="0.00" meanHaltingDuration="0.00" maxHaltingDuration="0.00" haltingDurationSum="0.00" meanIntervalHaltingDuration="0.00" maxIntervalHaltingDuration="0.00" intervalHaltingDurationSum="0.00" startedHalts="0.00" meanVehicleNumber="30.98" maxVehicleNumber="34" />