<?xml version="1.0" encoding="UTF-8"?>

<!-- generated on 02/24/19 12:03:57 by Eclipse SUMO Version 1.0.1
<configuration xmlns:xsi="http://www.w3.org/2001/XMLSchema-instance" xsi:noNamespaceSchemaLocation="http://sumo.dlr.de/xsd/sumoConfiguration.xsd">

    <input>
        <net-file value="./project/ramp.net.xml"/>
        <route-files value="./project/ramp.rou.xml"/>
        <additional-files value="./project/ramp.add.xml"/>
    </input>

    <time>
        <begin value="0"/>
    </time>

    <report>
        <verbose value="true"/>
        <no-step-log value="true"/>
    </report>

    <traci_server>
        <remote-port value="51017"/>
    </traci_server>

    <random_number>
        <seed value="1288424167"/>
    </random_number>

    <gui_only>
        <quit-on-end value="true"/>
        <start value="true"/>
    </gui_only>

</configuration>
-->

<detector xmlns:xsi="http://www.w3.org/2001/XMLSchema-instance" xsi:noNamespaceSchemaLocation="http://sumo.dlr.de/xsd/det_e1_file.xsd">
    <interval begin="0.00" end="60.00" id="ramp_eval_0_0" nVehContrib="1" flow="60.00" occupancy="0.75" speed="11.05" length="5.00" nVehEntered="1"/>
    <interval begin="0.00" end="60.00" id="ramp_eval_2_0" nVehContrib="0" flow="0.00" occupancy="0.00" speed="-1.00" length="-1.00" nVehEntered="0"/>
   <interval begin="0.00" end="60.00" id="mainline_up_0_2" sampledSeconds="0.00" nVehEntered="0" nVehLeft="0" nVehSeen="0" meanSpeed="-1.00" meanTimeLoss="-1.00" meanOccupancy="0.00" maxOccupancy="0.00" meanMaxJamLengthInVehicles="0.00" meanMaxJamLengthInMeters="0.00" maxJamLengthInVehicles="0" maxJamLengthInMeters="0.00" jamLengthInVehiclesSum="0" jamLengthInMetersSum="0.00" meanHaltingDuration="0.00" maxHaltingDuration="0.00" haltingDurationSum="0.00" meanIntervalHaltingDuration="0.00" maxIntervalHaltingDuration="0.00" intervalHaltingDurationSum="0.00" startedHalts="0.00" meanVehicleNumber="0.00" maxVehicleNumber="0" />
   <interval begin="0.00" end="60.00" id="mainline_up_1_2" sampledSeconds="0.00" nVehEntered="0" nVehLeft="0" nVehSeen="0" meanSpeed="-1.00" meanTimeLoss="-1.00" meanOccupancy="0.00" maxOccupancy="0.00" meanMaxJamLengthInVehicles="0.00" meanMaxJamLengthInMeters="0.00" maxJamLengthInVehicles="0" maxJamLengthInMeters="0.00" jamLengthInVehiclesSum="0" jamLengthInMetersSum="0.00" meanHaltingDuration="0.00" maxHaltingDuration="0.00" haltingDurationSum="0.00" meanIntervalHaltingDuration="0.00" maxIntervalHaltingDuration="0.00" intervalHaltingDurationSum="0.00" startedHalts="0.00" meanVehicleNumber="0.00" maxVehicleNumber="0" />
   <interval begin="0.00" end="60.00" id="mainline_up_2_2" sampledSeconds="0.00" nVehEntered="0" nVehLeft="0" nVehSeen="0" meanSpeed="-1.00" meanTimeLoss="-1.00" meanOccupancy="0.00" maxOccupancy="0.00" meanMaxJamLengthInVehicles="0.00" meanMaxJamLengthInMeters="0.00" maxJamLengthInVehicles="0" maxJamLengthInMeters="0.00" jamLengthInVehiclesSum="0" jamLengthInMetersSum="0.00" meanHaltingDuration="0.00" maxHaltingDuration="0.00" haltingDurationSum="0.00" meanIntervalHaltingDuration="0.00" maxIntervalHaltingDuration="0.00" intervalHaltingDurationSum="0.00" startedHalts="0.00" meanVehicleNumber="0.00" maxVehicleNumber="0" />
    <interval begin="60.00" end="120.00" id="ramp_eval_0_0" nVehContrib="22" flow="1320.00" occupancy="20.68" speed="8.91" length="5.00" nVehEntered="22"/>
    <interval begin="60.00" end="120.00" id="ramp_eval_2_0" nVehContrib="0" flow="0.00" occupancy="0.00" speed="-1.00" length="-1.00" nVehEntered="0"/>
   <interval begin="60.00" end="120.00" id="mainline_up_0_2" sampledSeconds="261.08" nVehEntered="13" nVehLeft="6" nVehSeen="13" meanSpeed="19.92" meanTimeLoss="0.59" meanOccupancy="2.74" maxOccupancy="5.65" meanMaxJamLengthInVehicles="0.00" meanMaxJamLengthInMeters="0.00" maxJamLengthInVehicles="0" maxJamLengthInMeters="0.00" jamLengthInVehiclesSum="0" jamLengthInMetersSum="0.00" meanHaltingDuration="0.00" maxHaltingDuration="0.00" haltingDurationSum="0.00" meanIntervalHaltingDuration="0.00" maxIntervalHaltingDuration="0.00" intervalHaltingDurationSum="0.00" startedHalts="0.00" meanVehicleNumber="4.47" maxVehicleNumber="9" />
   <interval begin="60.00" end="120.00" id="mainline_up_1_2" sampledSeconds="219.91" nVehEntered="17" nVehLeft="6" nVehSeen="17" meanSpeed="21.67" meanTimeLoss="0.35" meanOccupancy="2.33" maxOccupancy="6.91" meanMaxJamLengthInVehicles="0.00" meanMaxJamLengthInMeters="0.00" maxJamLengthInVehicles="0" maxJamLengthInMeters="0.00" jamLengthInVehiclesSum="0" jamLengthInMetersSum="0.00" meanHaltingDuration="0.00" maxHaltingDuration="0.00" haltingDurationSum="0.00" meanIntervalHaltingDuration="0.00" maxIntervalHaltingDuration="0.00" intervalHaltingDurationSum="0.00" startedHalts="0.00" meanVehicleNumber="3.75" maxVehicleNumber="11" />
   <interval begin="60.00" end="120.00" id="mainline_up_2_2" sampledSeconds="256.19" nVehEntered="18" nVehLeft="7" nVehSeen="18" meanSpeed="22.75" meanTimeLoss="0.68" meanOccupancy="2.73" maxOccupancy="7.54" meanMaxJamLengthInVehicles="0.00" meanMaxJamLengthInMeters="0.00" maxJamLengthInVehicles="0" maxJamLengthInMeters="0.00" jamLengthInVehiclesSum="0" jamLengthInMetersSum="0.00" meanHaltingDuration="0.00" maxHaltingDuration="0.00" haltingDurationSum="0.00" meanIntervalHaltingDuration="0.00" maxIntervalHaltingDuration="0.00" intervalHaltingDurationSum="0.00" startedHalts="0.00" meanVehicleNumber="4.45" maxVehicleNumber="13" />
    <interval begin="120.00" end="180.00" id="ramp_eval_0_0" nVehContrib="18" flow="1080.00" occupancy="17.29" speed="8.75" length="5.00" nVehEntered="18"/>
    <interval begin="120.00" end="180.00" id="ramp_eval_2_0" nVehContrib="12" flow="720.00" occupancy="10.49" speed="9.56" length="5.00" nVehEntered="12"/>
   <interval begin="120.00" end="180.00" id="mainline_up_0_2" sampledSeconds="689.59" nVehEntered="17" nVehLeft="16" nVehSeen="24" meanSpeed="17.62" meanTimeLoss="3.43" meanOccupancy="7.19" maxOccupancy="8.79" meanMaxJamLengthInVehicles="0.00" meanMaxJamLengthInMeters="0.00" maxJamLengthInVehicles="0" maxJamLengthInMeters="0.00" jamLengthInVehiclesSum="0" jamLengthInMetersSum="0.00" meanHaltingDuration="0.00" maxHaltingDuration="0.00" haltingDurationSum="0.00" meanIntervalHaltingDuration="0.00" maxIntervalHaltingDuration="0.00" intervalHaltingDurationSum="0.00" startedHalts="0.00" meanVehicleNumber="11.75" maxVehicleNumber="14" />
   <interval begin="120.00" end="180.00" id="mainline_up_1_2" sampledSeconds="1125.00" nVehEntered="31" nVehLeft="26" nVehSeen="42" meanSpeed="18.44" meanTimeLoss="3.75" meanOccupancy="11.74" maxOccupancy="15.51" meanMaxJamLengthInVehicles="0.00" meanMaxJamLengthInMeters="0.00" maxJamLengthInVehicles="0" maxJamLengthInMeters="0.00" jamLengthInVehiclesSum="0" jamLengthInMetersSum="0.00" meanHaltingDuration="0.00" maxHaltingDuration="0.00" haltingDurationSum="0.00" meanIntervalHaltingDuration="0.00" maxIntervalHaltingDuration="0.00" intervalHaltingDurationSum="0.00" startedHalts="0.00" meanVehicleNumber="19.18" maxVehicleNumber="26" />
   <interval begin="120.00" end="180.00" id="mainline_up_2_2" sampledSeconds="1172.54" nVehEntered="36" nVehLeft="26" nVehSeen="47" meanSpeed="21.30" meanTimeLoss="2.65" meanOccupancy="12.25" maxOccupancy="14.47" meanMaxJamLengthInVehicles="0.00" meanMaxJamLengthInMeters="0.00" maxJamLengthInVehicles="0" maxJamLengthInMeters="0.00" jamLengthInVehiclesSum="0" jamLengthInMetersSum="0.00" meanHaltingDuration="0.00" maxHaltingDuration="0.00" haltingDurationSum="0.00" meanIntervalHaltingDuration="0.00" maxIntervalHaltingDuration="0.00" intervalHaltingDurationSum="0.00" startedHalts="0.00" meanVehicleNumber="19.95" maxVehicleNumber="24" />
    <interval begin="180.00" end="240.00" id="ramp_eval_0_0" nVehContrib="17" flow="1020.00" occupancy="13.52" speed="10.50" length="5.00" nVehEntered="17"/>
    <interval begin="180.00" end="240.00" id="ramp_eval_2_0" nVehContrib="16" flow="960.00" occupancy="16.05" speed="8.33" length="5.00" nVehEntered="16"/>
   <interval begin="180.00" end="240.00" id="mainline_up_0_2" sampledSeconds="639.85" nVehEntered="24" nVehLeft="21" nVehSeen="32" meanSpeed="17.88" meanTimeLoss="1.90" meanOccupancy="6.69" maxOccupancy="8.17" meanMaxJamLengthInVehicles="0.00" meanMaxJamLengthInMeters="0.00" maxJamLengthInVehicles="0" maxJamLengthInMeters="0.00" jamLengthInVehiclesSum="0" jamLengthInMetersSum="0.00" meanHaltingDuration="0.00" maxHaltingDuration="0.00" haltingDurationSum="0.00" meanIntervalHaltingDuration="0.00" maxIntervalHaltingDuration="0.00" intervalHaltingDurationSum="0.00" startedHalts="0.00" meanVehicleNumber="10.83" maxVehicleNumber="13" />
   <interval begin="180.00" end="240.00" id="mainline_up_1_2" sampledSeconds="1083.14" nVehEntered="45" nVehLeft="42" nVehSeen="61" meanSpeed="19.30" meanTimeLoss="2.09" meanOccupancy="11.26" maxOccupancy="13.19" meanMaxJamLengthInVehicles="0.00" meanMaxJamLengthInMeters="0.00" maxJamLengthInVehicles="0" maxJamLengthInMeters="0.00" jamLengthInVehiclesSum="0" jamLengthInMetersSum="0.00" meanHaltingDuration="0.00" maxHaltingDuration="0.00" haltingDurationSum="0.00" meanIntervalHaltingDuration="0.00" maxIntervalHaltingDuration="0.00" intervalHaltingDurationSum="0.00" startedHalts="0.00" meanVehicleNumber="18.50" maxVehicleNumber="22" />
   <interval begin="180.00" end="240.00" id="mainline_up_2_2" sampledSeconds="1087.60" nVehEntered="37" nVehLeft="36" nVehSeen="58" meanSpeed="20.37" meanTimeLoss="2.64" meanOccupancy="11.30" maxOccupancy="13.82" meanMaxJamLengthInVehicles="0.00" meanMaxJamLengthInMeters="0.00" maxJamLengthInVehicles="0" maxJamLengthInMeters="0.00" jamLengthInVehiclesSum="0" jamLengthInMetersSum="0.00" meanHaltingDuration="0.00" maxHaltingDuration="0.00" haltingDurationSum="0.00" meanIntervalHaltingDuration="0.00" maxIntervalHaltingDuration="0.00" intervalHaltingDurationSum="0.00" startedHalts="0.00" meanVehicleNumber="18.57" maxVehicleNumber="22" />
    <interval begin="240.00" end="300.00" id="ramp_eval_0_0" nVehContrib="19" flow="1140.00" occupancy="17.20" speed="9.25" length="5.00" nVehEntered="19"/>
    <interval begin="240.00" end="300.00" id="ramp_eval_2_0" nVehContrib="28" flow="1680.00" occupancy="26.82" speed="8.82" length="5.00" nVehEntered="28"/>
   <interval begin="240.00" end="300.00" id="mainline_up_0_2" sampledSeconds="1011.16" nVehEntered="24" nVehLeft="20" nVehSeen="35" meanSpeed="16.71" meanTimeLoss="4.40" meanOccupancy="10.55" maxOccupancy="13.19" meanMaxJamLengthInVehicles="0.05" meanMaxJamLengthInMeters="0.19" maxJamLengthInVehicles="1" maxJamLengthInMeters="4.77" jamLengthInVehiclesSum="3" jamLengthInMetersSum="11.15" meanHaltingDuration="4.00" maxHaltingDuration="4.00" haltingDurationSum="4.00" meanIntervalHaltingDuration="4.00" maxIntervalHaltingDuration="4.00" intervalHaltingDurationSum="4.00" startedHalts="1.00" meanVehicleNumber="17.05" maxVehicleNumber="21" />
   <interval begin="240.00" end="300.00" id="mainline_up_1_2" sampledSeconds="1266.86" nVehEntered="44" nVehLeft="38" nVehSeen="63" meanSpeed="18.78" meanTimeLoss="2.69" meanOccupancy="13.19" maxOccupancy="16.33" meanMaxJamLengthInVehicles="0.00" meanMaxJamLengthInMeters="0.00" maxJamLengthInVehicles="0" maxJamLengthInMeters="0.00" jamLengthInVehiclesSum="0" jamLengthInMetersSum="0.00" meanHaltingDuration="0.00" maxHaltingDuration="0.00" haltingDurationSum="0.00" meanIntervalHaltingDuration="0.00" maxIntervalHaltingDuration="0.00" intervalHaltingDurationSum="0.00" startedHalts="0.00" meanVehicleNumber="21.57" maxVehicleNumber="27" />
   <interval begin="240.00" end="300.00" id="mainline_up_2_2" sampledSeconds="1330.63" nVehEntered="40" nVehLeft="38" nVehSeen="62" meanSpeed="20.47" meanTimeLoss="2.66" meanOccupancy="13.84" maxOccupancy="15.70" meanMaxJamLengthInVehicles="0.00" meanMaxJamLengthInMeters="0.00" maxJamLengthInVehicles="0" maxJamLengthInMeters="0.00" jamLengthInVehiclesSum="0" jamLengthInMetersSum="0.00" meanHaltingDuration="0.00" maxHaltingDuration="0.00" haltingDurationSum="0.00" meanIntervalHaltingDuration="0.00" maxIntervalHaltingDuration="0.00" intervalHaltingDurationSum="0.00" startedHalts="0.00" meanVehicleNumber="22.82" maxVehicleNumber="26" />
    <interval begin="300.00" end="360.00" id="ramp_eval_0_0" nVehContrib="18" flow="1080.00" occupancy="18.88" speed="8.01" length="5.00" nVehEntered="18"/>
    <interval begin="300.00" end="360.00" id="ramp_eval_2_0" nVehContrib="10" flow="600.00" occupancy="9.69" speed="9.54" length="5.00" nVehEntered="11"/>
   <interval begin="300.00" end="360.00" id="mainline_up_0_2" sampledSeconds="1056.14" nVehEntered="27" nVehLeft="25" nVehSeen="42" meanSpeed="13.52" meanTimeLoss="6.20" meanOccupancy="10.94" maxOccupancy="13.82" meanMaxJamLengthInVehicles="0.87" meanMaxJamLengthInMeters="6.05" maxJamLengthInVehicles="5" maxJamLengthInMeters="37.74" jamLengthInVehiclesSum="52" jamLengthInMetersSum="363.03" meanHaltingDuration="6.20" maxHaltingDuration="7.00" haltingDurationSum="62.00" meanIntervalHaltingDuration="6.20" maxIntervalHaltingDuration="7.00" intervalHaltingDurationSum="62.00" startedHalts="10.00" meanVehicleNumber="17.90" maxVehicleNumber="22" />
   <interval begin="300.00" end="360.00" id="mainline_up_1_2" sampledSeconds="1198.12" nVehEntered="38" nVehLeft="40" nVehSeen="63" meanSpeed="16.49" meanTimeLoss="2.97" meanOccupancy="12.44" maxOccupancy="15.70" meanMaxJamLengthInVehicles="0.00" meanMaxJamLengthInMeters="0.00" maxJamLengthInVehicles="0" maxJamLengthInMeters="0.00" jamLengthInVehiclesSum="0" jamLengthInMetersSum="0.00" meanHaltingDuration="0.00" maxHaltingDuration="0.00" haltingDurationSum="0.00" meanIntervalHaltingDuration="0.00" maxIntervalHaltingDuration="0.00" intervalHaltingDurationSum="0.00" startedHalts="0.00" meanVehicleNumber="20.40" maxVehicleNumber="25" />
   <interval begin="300.00" end="360.00" id="mainline_up_2_2" sampledSeconds="1248.24" nVehEntered="33" nVehLeft="34" nVehSeen="57" meanSpeed="17.50" meanTimeLoss="2.98" meanOccupancy="12.96" maxOccupancy="14.98" meanMaxJamLengthInVehicles="0.00" meanMaxJamLengthInMeters="0.00" maxJamLengthInVehicles="0" maxJamLengthInMeters="0.00" jamLengthInVehiclesSum="0" jamLengthInMetersSum="0.00" meanHaltingDuration="0.00" maxHaltingDuration="0.00" haltingDurationSum="0.00" meanIntervalHaltingDuration="0.00" maxIntervalHaltingDuration="0.00" intervalHaltingDurationSum="0.00" startedHalts="0.00" meanVehicleNumber="21.30" maxVehicleNumber="24" />
    <interval begin="360.00" end="420.00" id="ramp_eval_0_0" nVehContrib="20" flow="1200.00" occupancy="16.83" speed="9.93" length="5.00" nVehEntered="20"/>
    <interval begin="360.00" end="420.00" id="ramp_eval_2_0" nVehContrib="12" flow="720.00" occupancy="10.14" speed="9.07" length="5.00" nVehEntered="11"/>
   <interval begin="360.00" end="420.00" id="mainline_up_0_2" sampledSeconds="1122.69" nVehEntered="27" nVehLeft="26" nVehSeen="44" meanSpeed="14.52" meanTimeLoss="3.90" meanOccupancy="11.65" maxOccupancy="13.97" meanMaxJamLengthInVehicles="0.00" meanMaxJamLengthInMeters="0.00" maxJamLengthInVehicles="0" maxJamLengthInMeters="0.00" jamLengthInVehiclesSum="0" jamLengthInMetersSum="0.00" meanHaltingDuration="1.00" maxHaltingDuration="1.00" haltingDurationSum="1.00" meanIntervalHaltingDuration="1.00" maxIntervalHaltingDuration="1.00" intervalHaltingDurationSum="1.00" startedHalts="1.00" meanVehicleNumber="18.98" maxVehicleNumber="23" />
   <interval begin="360.00" end="420.00" id="mainline_up_1_2" sampledSeconds="1396.59" nVehEntered="45" nVehLeft="48" nVehSeen="68" meanSpeed="14.81" meanTimeLoss="3.52" meanOccupancy="14.54" maxOccupancy="17.59" meanMaxJamLengthInVehicles="0.00" meanMaxJamLengthInMeters="0.00" maxJamLengthInVehicles="0" maxJamLengthInMeters="0.00" jamLengthInVehiclesSum="0" jamLengthInMetersSum="0.00" meanHaltingDuration="0.00" maxHaltingDuration="0.00" haltingDurationSum="0.00" meanIntervalHaltingDuration="0.00" maxIntervalHaltingDuration="0.00" intervalHaltingDurationSum="0.00" startedHalts="0.00" meanVehicleNumber="23.77" maxVehicleNumber="28" />
   <interval begin="360.00" end="420.00" id="mainline_up_2_2" sampledSeconds="1544.03" nVehEntered="42" nVehLeft="36" nVehSeen="65" meanSpeed="15.16" meanTimeLoss="3.75" meanOccupancy="16.05" maxOccupancy="18.76" meanMaxJamLengthInVehicles="0.00" meanMaxJamLengthInMeters="0.00" maxJamLengthInVehicles="0" maxJamLengthInMeters="0.00" jamLengthInVehiclesSum="0" jamLengthInMetersSum="0.00" meanHaltingDuration="0.00" maxHaltingDuration="0.00" haltingDurationSum="0.00" meanIntervalHaltingDuration="0.00" maxIntervalHaltingDuration="0.00" intervalHaltingDurationSum="0.00" startedHalts="0.00" meanVehicleNumber="26.23" maxVehicleNumber="30" />
    <interval begin="420.00" end="480.00" id="ramp_eval_0_0" nVehContrib="19" flow="1140.00" occupancy="16.57" speed="9.62" length="5.00" nVehEntered="19"/>
    <interval begin="420.00" end="480.00" id="ramp_eval_2_0" nVehContrib="29" flow="1740.00" occupancy="30.07" speed="8.09" length="5.00" nVehEntered="29"/>
   <interval begin="420.00" end="480.00" id="mainline_up_0_2" sampledSeconds="1031.79" nVehEntered="30" nVehLeft="27" nVehSeen="48" meanSpeed="14.66" meanTimeLoss="3.32" meanOccupancy="10.73" maxOccupancy="13.19" meanMaxJamLengthInVehicles="0.00" meanMaxJamLengthInMeters="0.00" maxJamLengthInVehicles="0" maxJamLengthInMeters="0.00" jamLengthInVehiclesSum="0" jamLengthInMetersSum="0.00" meanHaltingDuration="0.00" maxHaltingDuration="0.00" haltingDurationSum="0.00" meanIntervalHaltingDuration="0.00" maxIntervalHaltingDuration="0.00" intervalHaltingDurationSum="0.00" startedHalts="0.00" meanVehicleNumber="17.52" maxVehicleNumber="22" />
   <interval begin="420.00" end="480.00" id="mainline_up_1_2" sampledSeconds="1386.52" nVehEntered="50" nVehLeft="46" nVehSeen="70" meanSpeed="15.03" meanTimeLoss="3.68" meanOccupancy="14.41" maxOccupancy="15.70" meanMaxJamLengthInVehicles="0.00" meanMaxJamLengthInMeters="0.00" maxJamLengthInVehicles="0" maxJamLengthInMeters="0.00" jamLengthInVehiclesSum="0" jamLengthInMetersSum="0.00" meanHaltingDuration="0.00" maxHaltingDuration="0.00" haltingDurationSum="0.00" meanIntervalHaltingDuration="0.00" maxIntervalHaltingDuration="0.00" intervalHaltingDurationSum="0.00" startedHalts="0.00" meanVehicleNumber="23.57" maxVehicleNumber="26" />
   <interval begin="420.00" end="480.00" id="mainline_up_2_2" sampledSeconds="1676.01" nVehEntered="36" nVehLeft="36" nVehSeen="65" meanSpeed="14.99" meanTimeLoss="5.36" meanOccupancy="17.51" maxOccupancy="18.84" meanMaxJamLengthInVehicles="0.00" meanMaxJamLengthInMeters="0.00" maxJamLengthInVehicles="0" maxJamLengthInMeters="0.00" jamLengthInVehiclesSum="0" jamLengthInMetersSum="0.00" meanHaltingDuration="0.00" maxHaltingDuration="0.00" haltingDurationSum="0.00" meanIntervalHaltingDuration="0.00" maxIntervalHaltingDuration="0.00" intervalHaltingDurationSum="0.00" startedHalts="0.00" meanVehicleNumber="28.47" maxVehicleNumber="30" />
    <interval begin="480.00" end="540.00" id="ramp_eval_0_0" nVehContrib="18" flow="1080.00" occupancy="15.45" speed="9.76" length="5.00" nVehEntered="18"/>
    <interval begin="480.00" end="540.00" id="ramp_eval_2_0" nVehContrib="18" flow="1080.00" occupancy="18.96" speed="8.21" length="5.00" nVehEntered="18"/>
   <interval begin="480.00" end="540.00" id="mainline_up_0_2" sampledSeconds="1173.91" nVehEntered="27" nVehLeft="27" nVehSeen="48" meanSpeed="13.12" meanTimeLoss="4.09" meanOccupancy="12.15" maxOccupancy="14.33" meanMaxJamLengthInVehicles="0.00" meanMaxJamLengthInMeters="0.00" maxJamLengthInVehicles="0" maxJamLengthInMeters="0.00" jamLengthInVehiclesSum="0" jamLengthInMetersSum="0.00" meanHaltingDuration="0.00" maxHaltingDuration="0.00" haltingDurationSum="0.00" meanIntervalHaltingDuration="0.00" maxIntervalHaltingDuration="0.00" intervalHaltingDurationSum="0.00" startedHalts="0.00" meanVehicleNumber="19.80" maxVehicleNumber="23" />
   <interval begin="480.00" end="540.00" id="mainline_up_1_2" sampledSeconds="1543.53" nVehEntered="45" nVehLeft="46" nVehSeen="69" meanSpeed="13.39" meanTimeLoss="3.74" meanOccupancy="16.04" maxOccupancy="17.59" meanMaxJamLengthInVehicles="0.00" meanMaxJamLengthInMeters="0.00" maxJamLengthInVehicles="0" maxJamLengthInMeters="0.00" jamLengthInVehiclesSum="0" jamLengthInMetersSum="0.00" meanHaltingDuration="0.00" maxHaltingDuration="0.00" haltingDurationSum="0.00" meanIntervalHaltingDuration="0.00" maxIntervalHaltingDuration="0.00" intervalHaltingDurationSum="0.00" startedHalts="0.00" meanVehicleNumber="26.15" maxVehicleNumber="28" />
   <interval begin="480.00" end="540.00" id="mainline_up_2_2" sampledSeconds="1699.61" nVehEntered="37" nVehLeft="36" nVehSeen="66" meanSpeed="13.43" meanTimeLoss="4.69" meanOccupancy="17.69" maxOccupancy="19.11" meanMaxJamLengthInVehicles="0.00" meanMaxJamLengthInMeters="0.00" maxJamLengthInVehicles="0" maxJamLengthInMeters="0.00" jamLengthInVehiclesSum="0" jamLengthInMetersSum="0.00" meanHaltingDuration="0.00" maxHaltingDuration="0.00" haltingDurationSum="0.00" meanIntervalHaltingDuration="0.00" maxIntervalHaltingDuration="0.00" intervalHaltingDurationSum="0.00" startedHalts="0.00" meanVehicleNumber="28.82" maxVehicleNumber="31" />
    <interval begin="540.00" end="600.00" id="ramp_eval_0_0" nVehContrib="18" flow="1080.00" occupancy="15.16" speed="9.93" length="5.00" nVehEntered="18"/>
    <interval begin="540.00" end="600.00" id="ramp_eval_2_0" nVehContrib="19" flow="1140.00" occupancy="17.21" speed="9.29" length="5.00" nVehEntered="19"/>
   <interval begin="540.00" end="600.00" id="mainline_up_0_2" sampledSeconds="1175.40" nVehEntered="29" nVehLeft="23" nVehSeen="50" meanSpeed="13.46" meanTimeLoss="5.45" meanOccupancy="12.13" maxOccupancy="16.96" meanMaxJamLengthInVehicles="0.98" meanMaxJamLengthInMeters="6.97" maxJamLengthInVehicles="6" maxJamLengthInMeters="44.58" jamLengthInVehiclesSum="59" jamLengthInMetersSum="418.50" meanHaltingDuration="8.33" maxHaltingDuration="15.00" haltingDurationSum="50.00" meanIntervalHaltingDuration="8.33" maxIntervalHaltingDuration="15.00" intervalHaltingDurationSum="50.00" startedHalts="7.00" meanVehicleNumber="19.87" maxVehicleNumber="28" />
   <interval begin="540.00" end="600.00" id="mainline_up_1_2" sampledSeconds="1615.02" nVehEntered="40" nVehLeft="34" nVehSeen="63" meanSpeed="13.64" meanTimeLoss="6.29" meanOccupancy="16.77" maxOccupancy="19.24" meanMaxJamLengthInVehicles="0.00" meanMaxJamLengthInMeters="0.00" maxJamLengthInVehicles="0" maxJamLengthInMeters="0.00" jamLengthInVehiclesSum="0" jamLengthInMetersSum="0.00" meanHaltingDuration="0.00" maxHaltingDuration="0.00" haltingDurationSum="0.00" meanIntervalHaltingDuration="0.00" maxIntervalHaltingDuration="0.00" intervalHaltingDurationSum="0.00" startedHalts="0.00" meanVehicleNumber="27.35" maxVehicleNumber="31" />
   <interval begin="540.00" end="600.00" id="mainline_up_2_2" sampledSeconds="1811.67" nVehEntered="32" nVehLeft="35" nVehSeen="62" meanSpeed="14.28" meanTimeLoss="6.85" meanOccupancy="18.83" maxOccupancy="20.10" meanMaxJamLengthInVehicles="0.00" meanMaxJamLengthInMeters="0.00" maxJamLengthInVehicles="0" maxJamLengthInMeters="0.00" jamLengthInVehiclesSum="0" jamLengthInMetersSum="0.00" meanHaltingDuration="0.00" maxHaltingDuration="0.00" haltingDurationSum="0.00" meanIntervalHaltingDuration="0.00" maxIntervalHaltingDuration="0.00" intervalHaltingDurationSum="0.00" startedHalts="0.00" meanVehicleNumber="30.65" maxVehicleNumber="33" />
    <interval begin="600.00" end="660.00" id="ramp_eval_0_0" nVehContrib="20" flow="1200.00" occupancy="17.88" speed="9.71" length="5.00" nVehEntered="21"/>
    <interval begin="600.00" end="660.00" id="ramp_eval_2_0" nVehContrib="22" flow="1320.00" occupancy="19.54" speed="9.41" length="5.00" nVehEntered="22"/>
   <interval begin="600.00" end="660.00" id="mainline_up_0_2" sampledSeconds="1467.99" nVehEntered="27" nVehLeft="29" nVehSeen="54" meanSpeed="11.72" meanTimeLoss="7.03" meanOccupancy="15.20" maxOccupancy="18.34" meanMaxJamLengthInVehicles="0.45" meanMaxJamLengthInMeters="3.26" maxJamLengthInVehicles="7" maxJamLengthInMeters="53.94" jamLengthInVehiclesSum="27" jamLengthInMetersSum="195.54" meanHaltingDuration="6.42" maxHaltingDuration="17.00" haltingDurationSum="77.00" meanIntervalHaltingDuration="2.50" maxIntervalHaltingDuration="6.00" intervalHaltingDurationSum="30.00" startedHalts="7.00" meanVehicleNumber="24.75" maxVehicleNumber="30" />
   <interval begin="600.00" end="660.00" id="mainline_up_1_2" sampledSeconds="1680.42" nVehEntered="42" nVehLeft="45" nVehSeen="71" meanSpeed="12.61" meanTimeLoss="5.39" meanOccupancy="17.46" maxOccupancy="19.81" meanMaxJamLengthInVehicles="0.00" meanMaxJamLengthInMeters="0.00" maxJamLengthInVehicles="0" maxJamLengthInMeters="0.00" jamLengthInVehiclesSum="0" jamLengthInMetersSum="0.00" meanHaltingDuration="0.00" maxHaltingDuration="0.00" haltingDurationSum="0.00" meanIntervalHaltingDuration="0.00" maxIntervalHaltingDuration="0.00" intervalHaltingDurationSum="0.00" startedHalts="0.00" meanVehicleNumber="28.42" maxVehicleNumber="33" />
   <interval begin="600.00" end="660.00" id="mainline_up_2_2" sampledSeconds="1804.88" nVehEntered="37" nVehLeft="33" nVehSeen="64" meanSpeed="13.17" meanTimeLoss="5.72" meanOccupancy="18.80" maxOccupancy="20.10" meanMaxJamLengthInVehicles="0.00" meanMaxJamLengthInMeters="0.00" maxJamLengthInVehicles="0" maxJamLengthInMeters="0.00" jamLengthInVehiclesSum="0" jamLengthInMetersSum="0.00" meanHaltingDuration="0.00" maxHaltingDuration="0.00" haltingDurationSum="0.00" meanIntervalHaltingDuration="0.00" maxIntervalHaltingDuration="0.00" intervalHaltingDurationSum="0.00" startedHalts="0.00" meanVehicleNumber="30.60" maxVehicleNumber="32" />
    <interval begin="660.00" end="720.00" id="ramp_eval_0_0" nVehContrib="20" flow="1200.00" occupancy="16.66" speed="9.65" length="5.00" nVehEntered="19"/>
    <interval begin="660.00" end="720.00" id="ramp_eval_2_0" nVehContrib="19" flow="1140.00" occupancy="16.47" speed="9.62" length="5.00" nVehEntered="19"/>
   <interval begin="660.00" end="720.00" id="mainline_up_0_2" sampledSeconds="1616.19" nVehEntered="30" nVehLeft="25" nVehSeen="55" meanSpeed="11.02" meanTimeLoss="11.15" meanOccupancy="16.79" maxOccupancy="18.84" meanMaxJamLengthInVehicles="2.20" meanMaxJamLengthInMeters="16.55" maxJamLengthInVehicles="8" maxJamLengthInMeters="65.09" jamLengthInVehiclesSum="135" jamLengthInMetersSum="1008.14" meanHaltingDuration="5.32" maxHaltingDuration="11.00" haltingDurationSum="149.00" meanIntervalHaltingDuration="5.32" maxIntervalHaltingDuration="11.00" intervalHaltingDurationSum="149.00" startedHalts="31.00" meanVehicleNumber="27.30" maxVehicleNumber="30" />
   <interval begin="660.00" end="720.00" id="mainline_up_1_2" sampledSeconds="1674.07" nVehEntered="38" nVehLeft="35" nVehSeen="64" meanSpeed="13.82" meanTimeLoss="7.39" meanOccupancy="17.39" maxOccupancy="19.94" meanMaxJamLengthInVehicles="0.00" meanMaxJamLengthInMeters="0.00" maxJamLengthInVehicles="0" maxJamLengthInMeters="0.00" jamLengthInVehiclesSum="0" jamLengthInMetersSum="0.00" meanHaltingDuration="0.00" maxHaltingDuration="0.00" haltingDurationSum="0.00" meanIntervalHaltingDuration="0.00" maxIntervalHaltingDuration="0.00" intervalHaltingDurationSum="0.00" startedHalts="0.00" meanVehicleNumber="28.40" maxVehicleNumber="32" />
   <interval begin="660.00" end="720.00" id="mainline_up_2_2" sampledSeconds="1767.44" nVehEntered="34" nVehLeft="37" nVehSeen="65" meanSpeed="15.54" meanTimeLoss="5.56" meanOccupancy="18.39" maxOccupancy="19.47" meanMaxJamLengthInVehicles="0.00" meanMaxJamLengthInMeters="0.00" maxJamLengthInVehicles="0" maxJamLengthInMeters="0.00" jamLengthInVehiclesSum="0" jamLengthInMetersSum="0.00" meanHaltingDuration="0.00" maxHaltingDuration="0.00" haltingDurationSum="0.00" meanIntervalHaltingDuration="0.00" maxIntervalHaltingDuration="0.00" intervalHaltingDurationSum="0.00" startedHalts="0.00" meanVehicleNumber="30.07" maxVehicleNumber="32" />
    <interval begin="720.00" end="780.00" id="ramp_eval_0_0" nVehContrib="20" flow="1200.00" occupancy="17.32" speed="9.66" length="5.00" nVehEntered="20"/>
    <interval begin="720.00" end="780.00" id="ramp_eval_2_0" nVehContrib="17" flow="1020.00" occupancy="15.12" speed="9.39" length="5.00" nVehEntered="17"/>
   <interval begin="720.00" end="780.00" id="mainline_up_0_2" sampledSeconds="1969.77" nVehEntered="22" nVehLeft="20" nVehSeen="52" meanSpeed="7.13" meanTimeLoss="22.97" meanOccupancy="20.44" maxOccupancy="23.87" meanMaxJamLengthInVehicles="7.08" meanMaxJamLengthInMeters="55.05" maxJamLengthInVehicles="19" maxJamLengthInMeters="153.13" jamLengthInVehiclesSum="532" jamLengthInMetersSum="4049.45" meanHaltingDuration="6.68" maxHaltingDuration="36.00" haltingDurationSum="474.00" meanIntervalHaltingDuration="6.52" maxIntervalHaltingDuration="36.00" intervalHaltingDurationSum="463.00" startedHalts="80.00" meanVehicleNumber="32.97" maxVehicleNumber="39" />
   <interval begin="720.00" end="780.00" id="mainline_up_1_2" sampledSeconds="1966.55" nVehEntered="50" nVehLeft="45" nVehSeen="79" meanSpeed="10.84" meanTimeLoss="10.36" meanOccupancy="20.47" maxOccupancy="24.20" meanMaxJamLengthInVehicles="0.68" meanMaxJamLengthInMeters="4.35" maxJamLengthInVehicles="4" maxJamLengthInMeters="29.66" jamLengthInVehiclesSum="50" jamLengthInMetersSum="312.01" meanHaltingDuration="2.12" maxHaltingDuration="5.00" haltingDurationSum="87.00" meanIntervalHaltingDuration="2.12" maxIntervalHaltingDuration="5.00" intervalHaltingDurationSum="87.00" startedHalts="42.00" meanVehicleNumber="33.23" maxVehicleNumber="40" />