<?xml version="1.0" encoding="UTF-8"?>

<!-- generated on 02/24/19 21:23:11 by Eclipse SUMO Version 1.0.1
<configuration xmlns:xsi="http://www.w3.org/2001/XMLSchema-instance" xsi:noNamespaceSchemaLocation="http://sumo.dlr.de/xsd/sumoConfiguration.xsd">

    <input>
        <net-file value="./project/ramp.net.xml"/>
        <route-files value="./project/ramp.rou.xml"/>
        <additional-files value="./project/ramp.add.xml"/>
    </input>

    <time>
        <begin value="0"/>
    </time>

    <report>
        <verbose value="true"/>
        <no-step-log value="true"/>
    </report>

    <traci_server>
        <remote-port value="60531"/>
    </traci_server>

    <random_number>
        <seed value="1101104964"/>
    </random_number>

    <gui_only>
        <quit-on-end value="true"/>
        <start value="true"/>
    </gui_only>

</configuration>
-->

<detector xmlns:xsi="http://www.w3.org/2001/XMLSchema-instance" xsi:noNamespaceSchemaLocation="http://sumo.dlr.de/xsd/det_e1_file.xsd">
    <interval begin="0.00" end="60.00" id="ramp_eval_0_0" nVehContrib="3" flow="180.00" occupancy="2.30" speed="10.88" length="5.00" nVehEntered="3"/>
    <interval begin="0.00" end="60.00" id="ramp_eval_2_0" nVehContrib="0" flow="0.00" occupancy="0.00" speed="-1.00" length="-1.00" nVehEntered="0"/>
   <interval begin="0.00" end="60.00" id="mainline_up_0_2" sampledSeconds="0.00" nVehEntered="0" nVehLeft="0" nVehSeen="0" meanSpeed="-1.00" meanTimeLoss="-1.00" meanOccupancy="0.00" maxOccupancy="0.00" meanMaxJamLengthInVehicles="0.00" meanMaxJamLengthInMeters="0.00" maxJamLengthInVehicles="0" maxJamLengthInMeters="0.00" jamLengthInVehiclesSum="0" jamLengthInMetersSum="0.00" meanHaltingDuration="0.00" maxHaltingDuration="0.00" haltingDurationSum="0.00" meanIntervalHaltingDuration="0.00" maxIntervalHaltingDuration="0.00" intervalHaltingDurationSum="0.00" startedHalts="0.00" meanVehicleNumber="0.00" maxVehicleNumber="0" />
   <interval begin="0.00" end="60.00" id="mainline_up_1_2" sampledSeconds="0.00" nVehEntered="0" nVehLeft="0" nVehSeen="0" meanSpeed="-1.00" meanTimeLoss="-1.00" meanOccupancy="0.00" maxOccupancy="0.00" meanMaxJamLengthInVehicles="0.00" meanMaxJamLengthInMeters="0.00" maxJamLengthInVehicles="0" maxJamLengthInMeters="0.00" jamLengthInVehiclesSum="0" jamLengthInMetersSum="0.00" meanHaltingDuration="0.00" maxHaltingDuration="0.00" haltingDurationSum="0.00" meanIntervalHaltingDuration="0.00" maxIntervalHaltingDuration="0.00" intervalHaltingDurationSum="0.00" startedHalts="0.00" meanVehicleNumber="0.00" maxVehicleNumber="0" />
   <interval begin="0.00" end="60.00" id="mainline_up_2_2" sampledSeconds="0.00" nVehEntered="0" nVehLeft="0" nVehSeen="0" meanSpeed="-1.00" meanTimeLoss="-1.00" meanOccupancy="0.00" maxOccupancy="0.00" meanMaxJamLengthInVehicles="0.00" meanMaxJamLengthInMeters="0.00" maxJamLengthInVehicles="0" maxJamLengthInMeters="0.00" jamLengthInVehiclesSum="0" jamLengthInMetersSum="0.00" meanHaltingDuration="0.00" maxHaltingDuration="0.00" haltingDurationSum="0.00" meanIntervalHaltingDuration="0.00" maxIntervalHaltingDuration="0.00" intervalHaltingDurationSum="0.00" startedHalts="0.00" meanVehicleNumber="0.00" maxVehicleNumber="0" />
    <interval begin="60.00" end="120.00" id="ramp_eval_0_0" nVehContrib="19" flow="1140.00" occupancy="18.78" speed="8.63" length="5.00" nVehEntered="20"/>
    <interval begin="60.00" end="120.00" id="ramp_eval_2_0" nVehContrib="1" flow="60.00" occupancy="0.77" speed="10.84" length="5.00" nVehEntered="1"/>
   <interval begin="60.00" end="120.00" id="mainline_up_0_2" sampledSeconds="369.94" nVehEntered="17" nVehLeft="5" nVehSeen="17" meanSpeed="21.22" meanTimeLoss="0.54" meanOccupancy="3.91" maxOccupancy="7.54" meanMaxJamLengthInVehicles="0.00" meanMaxJamLengthInMeters="0.00" maxJamLengthInVehicles="0" maxJamLengthInMeters="0.00" jamLengthInVehiclesSum="0" jamLengthInMetersSum="0.00" meanHaltingDuration="0.00" maxHaltingDuration="0.00" haltingDurationSum="0.00" meanIntervalHaltingDuration="0.00" maxIntervalHaltingDuration="0.00" intervalHaltingDurationSum="0.00" startedHalts="0.00" meanVehicleNumber="6.33" maxVehicleNumber="13" />
   <interval begin="60.00" end="120.00" id="mainline_up_1_2" sampledSeconds="217.88" nVehEntered="13" nVehLeft="5" nVehSeen="13" meanSpeed="22.02" meanTimeLoss="0.63" meanOccupancy="2.31" maxOccupancy="6.28" meanMaxJamLengthInVehicles="0.00" meanMaxJamLengthInMeters="0.00" maxJamLengthInVehicles="0" maxJamLengthInMeters="0.00" jamLengthInVehiclesSum="0" jamLengthInMetersSum="0.00" meanHaltingDuration="0.00" maxHaltingDuration="0.00" haltingDurationSum="0.00" meanIntervalHaltingDuration="0.00" maxIntervalHaltingDuration="0.00" intervalHaltingDurationSum="0.00" startedHalts="0.00" meanVehicleNumber="3.72" maxVehicleNumber="10" />
   <interval begin="60.00" end="120.00" id="mainline_up_2_2" sampledSeconds="264.30" nVehEntered="18" nVehLeft="2" nVehSeen="18" meanSpeed="22.79" meanTimeLoss="0.90" meanOccupancy="2.84" maxOccupancy="10.68" meanMaxJamLengthInVehicles="0.00" meanMaxJamLengthInMeters="0.00" maxJamLengthInVehicles="0" maxJamLengthInMeters="0.00" jamLengthInVehiclesSum="0" jamLengthInMetersSum="0.00" meanHaltingDuration="0.00" maxHaltingDuration="0.00" haltingDurationSum="0.00" meanIntervalHaltingDuration="0.00" maxIntervalHaltingDuration="0.00" intervalHaltingDurationSum="0.00" startedHalts="0.00" meanVehicleNumber="4.53" maxVehicleNumber="17" />
    <interval begin="120.00" end="180.00" id="ramp_eval_0_0" nVehContrib="21" flow="1260.00" occupancy="16.92" speed="10.15" length="5.00" nVehEntered="20"/>
    <interval begin="120.00" end="180.00" id="ramp_eval_2_0" nVehContrib="7" flow="420.00" occupancy="6.41" speed="9.59" length="5.00" nVehEntered="8"/>
   <interval begin="120.00" end="180.00" id="mainline_up_0_2" sampledSeconds="588.04" nVehEntered="18" nVehLeft="18" nVehSeen="30" meanSpeed="18.13" meanTimeLoss="1.12" meanOccupancy="6.16" maxOccupancy="7.54" meanMaxJamLengthInVehicles="0.00" meanMaxJamLengthInMeters="0.00" maxJamLengthInVehicles="0" maxJamLengthInMeters="0.00" jamLengthInVehiclesSum="0" jamLengthInMetersSum="0.00" meanHaltingDuration="0.00" maxHaltingDuration="0.00" haltingDurationSum="0.00" meanIntervalHaltingDuration="0.00" maxIntervalHaltingDuration="0.00" intervalHaltingDurationSum="0.00" startedHalts="0.00" meanVehicleNumber="10.00" maxVehicleNumber="12" />
   <interval begin="120.00" end="180.00" id="mainline_up_1_2" sampledSeconds="782.61" nVehEntered="39" nVehLeft="26" nVehSeen="47" meanSpeed="19.63" meanTimeLoss="1.36" meanOccupancy="8.15" maxOccupancy="13.82" meanMaxJamLengthInVehicles="0.00" meanMaxJamLengthInMeters="0.00" maxJamLengthInVehicles="0" maxJamLengthInMeters="0.00" jamLengthInVehiclesSum="0" jamLengthInMetersSum="0.00" meanHaltingDuration="0.00" maxHaltingDuration="0.00" haltingDurationSum="0.00" meanIntervalHaltingDuration="0.00" maxIntervalHaltingDuration="0.00" intervalHaltingDurationSum="0.00" startedHalts="0.00" meanVehicleNumber="13.40" maxVehicleNumber="22" />
   <interval begin="120.00" end="180.00" id="mainline_up_2_2" sampledSeconds="1221.40" nVehEntered="37" nVehLeft="33" nVehSeen="53" meanSpeed="21.93" meanTimeLoss="1.64" meanOccupancy="12.73" maxOccupancy="14.45" meanMaxJamLengthInVehicles="0.00" meanMaxJamLengthInMeters="0.00" maxJamLengthInVehicles="0" maxJamLengthInMeters="0.00" jamLengthInVehiclesSum="0" jamLengthInMetersSum="0.00" meanHaltingDuration="0.00" maxHaltingDuration="0.00" haltingDurationSum="0.00" meanIntervalHaltingDuration="0.00" maxIntervalHaltingDuration="0.00" intervalHaltingDurationSum="0.00" startedHalts="0.00" meanVehicleNumber="20.85" maxVehicleNumber="24" />
    <interval begin="180.00" end="240.00" id="ramp_eval_0_0" nVehContrib="19" flow="1140.00" occupancy="16.34" speed="9.74" length="5.00" nVehEntered="19"/>
    <interval begin="180.00" end="240.00" id="ramp_eval_2_0" nVehContrib="31" flow="1860.00" occupancy="29.76" speed="8.63" length="5.00" nVehEntered="30"/>
   <interval begin="180.00" end="240.00" id="mainline_up_0_2" sampledSeconds="681.16" nVehEntered="21" nVehLeft="23" nVehSeen="33" meanSpeed="18.38" meanTimeLoss="1.85" meanOccupancy="7.09" maxOccupancy="8.79" meanMaxJamLengthInVehicles="0.00" meanMaxJamLengthInMeters="0.00" maxJamLengthInVehicles="0" maxJamLengthInMeters="0.00" jamLengthInVehiclesSum="0" jamLengthInMetersSum="0.00" meanHaltingDuration="0.00" maxHaltingDuration="0.00" haltingDurationSum="0.00" meanIntervalHaltingDuration="0.00" maxIntervalHaltingDuration="0.00" intervalHaltingDurationSum="0.00" startedHalts="0.00" meanVehicleNumber="11.60" maxVehicleNumber="14" />
   <interval begin="180.00" end="240.00" id="mainline_up_1_2" sampledSeconds="1033.63" nVehEntered="41" nVehLeft="43" nVehSeen="62" meanSpeed="19.29" meanTimeLoss="1.79" meanOccupancy="10.73" maxOccupancy="13.19" meanMaxJamLengthInVehicles="0.00" meanMaxJamLengthInMeters="0.00" maxJamLengthInVehicles="0" maxJamLengthInMeters="0.00" jamLengthInVehiclesSum="0" jamLengthInMetersSum="0.00" meanHaltingDuration="0.00" maxHaltingDuration="0.00" haltingDurationnSum="0.00" meanIntervalHaltingDuration="0.00" maxIntervalHaltingDuration="0.00" intervalHaltingDurationSum="0.00" startedHalts="0.00" meanVehicleNumber="17.53" maxVehicleNumber="23" />
   <interval begin="180.00" end="240.00" id="mainline_up_2_2" sampledSeconds="1190.35" nVehEntered="39" nVehLeft="36" nVehSeen="59" meanSpeed="21.13" meanTimeLoss="2.12" meanOccupancy="12.40" maxOccupancy="15.05" meanMaxJamLengthInVehicles="0.00" meanMaxJamLengthInMeters="0.00" maxJamLengthInVehicles="0" maxJamLengthInMeters="0.00" jamLengthInVehiclesSum="0" jamLengthInMetersSum="0.00" meanHaltingDuration="0.00" maxHaltingDuration="0.00" haltingDurationSum="0.00" meanIntervalHaltingDuration="0.00" maxIntervalHaltingDuration="0.00" intervalHaltingDurationSum="0.00" startedHalts="0.00" meanVehicleNumber="20.40" maxVehicleNumber="25" />
    <interval begin="240.00" end="300.00" id="ramp_eval_0_0" nVehContrib="17" flow="1020.00" occupancy="15.62" speed="9.09" length="5.00" nVehEntered="17"/>
    <interval begin="240.00" end="300.00" id="ramp_eval_2_0" nVehContrib="18" flow="1080.00" occupancy="16.92" speed="8.88" length="5.00" nVehEntered="18"/>
   <interval begin="240.00" end="300.00" id="mainline_up_0_2" sampledSeconds="746.17" nVehEntered="25" nVehLeft="22" nVehSeen="36" meanSpeed="16.73" meanTimeLoss="2.83" meanOccupancy="7.78" maxOccupancy="9.42" meanMaxJamLengthInVehicles="0.00" meanMaxJamLengthInMeters="0.00" maxJamLengthInVehicles="0" maxJamLengthInMeters="0.00" jamLengthInVehiclesSum="0" jamLengthInMetersSum="0.00" meanHaltingDuration="0.00" maxHaltingDuration="0.00" haltingDurationSum="0.00" meanIntervalHaltingDuration="0.00" maxIntervalHaltingDuration="0.00" intervalHaltingDurationSum="0.00" startedHalts="0.00" meanVehicleNumber="12.67" maxVehicleNumber="15" />
   <interval begin="240.00" end="300.00" id="mainline_up_1_2" sampledSeconds="1187.03" nVehEntered="44" nVehLeft="35" nVehSeen="60" meanSpeed="18.94" meanTimeLoss="2.62" meanOccupancy="12.34" maxOccupancy="15.70" meanMaxJamLengthInVehicles="0.00" meanMaxJamLengthInMeters="0.00" maxJamLengthInVehicles="0" maxJamLengthInMeters="0.00" jamLengthInVehiclesSum="0" jamLengthInMetersSum="0.00" meanHaltingDuration="0.00" maxHaltingDuration="0.00" haltingDurationSum="0.00" meanIntervalHaltingDuration="0.00" maxIntervalHaltingDuration="0.00" intervalHaltingDurationSum="0.00" startedHalts="0.00" meanVehicleNumber="20.28" maxVehicleNumber="26" />
   <interval begin="240.00" end="300.00" id="mainline_up_2_2" sampledSeconds="1417.30" nVehEntered="38" nVehLeft="39" nVehSeen="61" meanSpeed="20.28" meanTimeLoss="3.09" meanOccupancy="14.73" maxOccupancy="16.90" meanMaxJamLengthInVehicles="0.00" meanMaxJamLengthInMeters="0.00" maxJamLengthInVehicles="0" maxJamLengthInMeters="0.00" jamLengthInVehiclesSum="0" jamLengthInMetersSum="0.00" meanHaltingDuration="0.00" maxHaltingDuration="0.00" haltingDurationSum="0.00" meanIntervalHaltingDuration="0.00" maxIntervalHaltingDuration="0.00" intervalHaltingDurationSum="0.00" startedHalts="0.00" meanVehicleNumber="24.22" maxVehicleNumber="27" />
  <interval begin="300.00" end="360.00" id="ramp_eval_0_0" nVehContrib="18" flow="1080.00" occupancy="16.01" speed="9.42" length="5.00" nVehEntered="18"/>
    <interval begin="300.00" end="360.00" id="ramp_eval_2_0" nVehContrib="14" flow="840.00" occupancy="12.09" speed="9.75" length="5.00" nVehEntered="15"/>
   <interval begin="300.00" end="360.00" id="mainline_up_0_2" sampledSeconds="1122.78" nVehEntered="29" nVehLeft="20" nVehSeen="41" meanSpeed="13.02" meanTimeLoss="2.69" meanOccupancy="11.69" maxOccupancy="15.56" meanMaxJamLengthInVehicles="0.00" meanMaxJamLengthInMeters="0.00" maxJamLengthInVehicles="0" maxJamLengthInMeters="0.00" jamLengthInVehiclesSum="0" jamLengthInMetersSum="0.00" meanHaltingDuration="0.00" maxHaltingDuration="0.00" haltingDurationSum="0.00" meanIntervalHaltingDuration="0.00" maxIntervalHaltingDuration="0.00" intervalHaltingDurationSum="0.00" startedHalts="0.00" meanVehicleNumber="19.00" maxVehicleNumber="25" />
   <interval begin="300.00" end="360.00" id="mainline_up_1_2" sampledSeconds="1436.53" nVehEntered="46" nVehLeft="42" nVehSeen="67" meanSpeed="14.04" meanTimeLoss="2.53" meanOccupancy="14.99" maxOccupancy="18.28" meanMaxJamLengthInVehicles="0.00" meanMaxJamLengthInMeters="0.00" maxJamLengthInVehicles="0" maxJamLengthInMeters="0.00" jamLengthInVehiclesSum="0" jamLengthInMetersSum="0.00" meanHaltingDuration="0.00" maxHaltingDuration="0.00" haltingDurationSum="0.00" meanIntervalHaltingDuration="0.00" maxIntervalHaltingDuration="0.00" intervalHaltingDurationSum="0.00" startedHalts="0.00" meanVehicleNumber="24.33" maxVehicleNumber="30" />
   <interval begin="300.00" end="360.00" id="mainline_up_2_2" sampledSeconds="1370.54" nVehEntered="37" nVehLeft="35" nVehSeen="60" meanSpeed="14.00" meanTimeLoss="2.90" meanOccupancy="14.33" maxOccupancy="16.33" meanMaxJamLengthInVehicles="0.00" meanMaxJamLengthInMeters="0.00" maxJamLengthInVehicles="0" maxJamLengthInMeters="0.00" jamLengthInVehiclesSum="0" jamLengthInMetersSum="0.00" meanHaltingDuration="0.00" maxHaltingDuration="0.00" haltingDurationSum="0.00" meanIntervalHaltingDuration="0.00" maxIntervalHaltingDuration="0.00" intervalHaltingDurationSum="0.00" startedHalts="0.00" meanVehicleNumber="23.27" maxVehicleNumber="27" />
    <interval begin="360.00" end="420.00" id="ramp_eval_0_0" nVehContrib="17" flow="1020.00" occupancy="20.17" speed="7.07" length="5.00" nVehEntered="17"/>
    <interval begin="360.00" end="420.00" id="ramp_eval_2_0" nVehContrib="23" flow="1380.00" occupancy="22.20" speed="8.60" length="5.00" nVehEntered="22"/>
   <interval begin="360.00" end="420.00" id="mainline_up_0_2" sampledSeconds="1233.56" nVehEntered="27" nVehLeft="27" nVehSeen="48" meanSpeed="13.41" meanTimeLoss="4.78" meanOccupancy="12.76" maxOccupancy="14.01" meanMaxJamLengthInVehicles="0.43" meanMaxJamLengthInMeters="2.95" maxJamLengthInVehicles="4" maxJamLengthInMeters="29.82" jamLengthInVehiclesSum="26" jamLengthInMetersSum="177.04" meanHaltingDuration="4.29" maxHaltingDuration="6.00" haltingDurationSum="30.00" meanIntervalHaltingDuration="4.29" maxIntervalHaltingDuration="6.00" intervalHaltingDurationSum="30.00" startedHalts="8.00" meanVehicleNumber="20.80" maxVehicleNumber="23" />
   <interval begin="360.00" end="420.00" id="mainline_up_1_2" sampledSeconds="1514.10" nVehEntered="44" nVehLeft="40" nVehSeen="69" meanSpeed="14.32" meanTimeLoss="3.61" meanOccupancy="15.75" maxOccupancy="18.13" meanMaxJamLengthInVehicles="0.00" meanMaxJamLengthInMeters="0.00" maxJamLengthInVehicles="0" maxJamLengthInMeters="0.00" jamLengthInVehiclesSum="0" jamLengthInMetersSum="0.00" meanHaltingDuration="1.00" maxHaltingDuration="1.00" haltingDurationSum="1.00" meanIntervalHaltingDuration="1.00" maxIntervalHaltingDuration="1.00" intervalHaltingDurationSum="1.00" startedHalts="1.00" meanVehicleNumber="25.70" maxVehicleNumber="30" />
   <interval begin="360.00" end="420.00" id="mainline_up_2_2" sampledSeconds="1758.93" nVehEntered="35" nVehLeft="31" nVehSeen="60" meanSpeed="14.42" meanTimeLoss="5.50" meanOccupancy="18.34" maxOccupancy="19.75" meanMaxJamLengthInVehicles="0.00" meanMaxJamLengthInMeters="0.00" maxJamLengthInVehicles="0" maxJamLengthInMeters="0.00" jamLengthInVehiclesSum="0" jamLengthInMetersSum="0.00" meanHaltingDuration="0.00" maxHaltingDuration="0.00" haltingDurationSum="0.00" meanIntervalHaltingDuration="0.00" maxIntervalHaltingDuration="0.00" intervalHaltingDurationSum="0.00" startedHalts="0.00" meanVehicleNumber="29.82" maxVehicleNumber="32" />
    <interval begin="420.00" end="480.00" id="ramp_eval_0_0" nVehContrib="21" flow="1260.00" occupancy="18.66" speed="9.44" length="5.00" nVehEntered="21"/>
    <interval begin="420.00" end="480.00" id="ramp_eval_2_0" nVehContrib="5" flow="300.00" occupancy="4.49" speed="9.29" length="5.00" nVehEntered="5"/>
   <interval begin="420.00" end="480.00" id="mainline_up_0_2" sampledSeconds="1506.69" nVehEntered="22" nVehLeft="21" nVehSeen="43" meanSpeed="10.70" meanTimeLoss="13.47" meanOccupancy="15.60" maxOccupancy="18.22" meanMaxJamLengthInVehicles="3.88" meanMaxJamLengthInMeters="29.68" maxJamLengthInVehicles="9" maxJamLengthInMeters="70.30" jamLengthInVehiclesSum="233" jamLengthInMetersSum="1780.82" meanHaltingDuration="10.04" maxHaltingDuration="17.00" haltingDurationSum="241.00" meanIntervalHaltingDuration="10.04" maxIntervalHaltingDuration="17.00" intervalHaltingDurationSum="241.00" startedHalts="26.00" meanVehicleNumber="25.42" maxVehicleNumber="30" />
   <interval begin="420.00" end="480.00" id="mainline_up_1_2" sampledSeconds="1651.20" nVehEntered="32" nVehLeft="38" nVehSeen="61" meanSpeed="13.20" meanTimeLoss="6.88" meanOccupancy="17.14" maxOccupancy="18.84" meanMaxJamLengthInVehicles="0.58" meanMaxJamLengthInMeters="3.60" maxJamLengthInVehicles="3" maxJamLengthInMeters="22.12" jamLengthInVehiclesSum="35" jamLengthInMetersSum="216.26" meanHaltingDuration="2.40" maxHaltingDuration="4.00" haltingDurationSum="60.00" meanIntervalHaltingDuration="2.40" maxIntervalHaltingDuration="4.00" intervalHaltingDurationSum="60.00" startedHalts="25.00" meanVehicleNumber="27.97" maxVehicleNumber="31" />
   <interval begin="420.00" end="480.00" id="mainline_up_2_2" sampledSeconds="1686.19" nVehEntered="39" nVehLeft="43" nVehSeen="68" meanSpeed="16.58" meanTimeLoss="1.74" meanOccupancy="17.52" maxOccupancy="18.29" meanMaxJamLengthInVehicles="0.00" meanMaxJamLengthInMeters="0.00" maxJamLengthInVehicles="0" maxJamLengthInMeters="0.00" jamLengthInVehiclesSum="0" jamLengthInMetersSum="0.00" meanHaltingDuration="0.00" maxHaltingDuration="0.00" haltingDurationSum="0.00" meanIntervalHaltingDuration="0.00" maxIntervalHaltingDuration="0.00" intervalHaltingDurationSum="0.00" startedHalts="0.00" meanVehicleNumber="28.72" maxVehicleNumber="30" />
    <interval begin="480.00" end="540.00" id="ramp_eval_0_0" nVehContrib="15" flow="900.00" occupancy="13.00" speed="9.65" length="5.00" nVehEntered="15"/>
    <interval begin="480.00" end="540.00" id="ramp_eval_2_0" nVehContrib="26" flow="1560.00" occupancy="29.25" speed="7.51" length="5.00" nVehEntered="26"/>
   <interval begin="480.00" end="540.00" id="mainline_up_0_2" sampledSeconds="856.26" nVehEntered="23" nVehLeft="27" nVehSeen="45" meanSpeed="15.70" meanTimeLoss="4.58" meanOccupancy="8.86" maxOccupancy="14.31" meanMaxJamLengthInVehicles="0.00" meanMaxJamLengthInMeters="0.00" maxJamLengthInVehicles="0" maxJamLengthInMeters="0.00" jamLengthInVehiclesSum="0" jamLengthInMetersSum="0.00" meanHaltingDuration="0.00" maxHaltingDuration="0.00" haltingDurationSum="0.00" meanIntervalHaltingDuration="0.00" maxIntervalHaltingDuration="0.00" intervalHaltingDurationSum="0.00" startedHalts="0.00" meanVehicleNumber="14.65" maxVehicleNumber="23" />
   <interval begin="480.00" end="540.00" id="mainline_up_1_2" sampledSeconds="1199.45" nVehEntered="34" nVehLeft="39" nVehSeen="57" meanSpeed="17.14" meanTimeLoss="4.20" meanOccupancy="12.44" maxOccupancy="14.86" meanMaxJamLengthInVehicles="0.00" meanMaxJamLengthInMeters="0.00" maxJamLengthInVehicles="0" maxJamLengthInMeters="0.00" jamLengthInVehiclesSum="0" jamLengthInMetersSum="0.00" meanHaltingDuration="0.00" maxHaltingDuration="0.00" haltingDurationSum="0.00" meanIntervalHaltingDuration="0.00" maxIntervalHaltingDuration="0.00" intervalHaltingDurationSum="0.00" startedHalts="0.00" meanVehicleNumber="20.47" maxVehicleNumber="24" />
   <interval begin="480.00" end="540.00" id="mainline_up_2_2" sampledSeconds="1419.28" nVehEntered="39" nVehLeft="41" nVehSeen="64" meanSpeed="19.68" meanTimeLoss="2.81" meanOccupancy="14.74" maxOccupancy="16.33" meanMaxJamLengthInVehicles="0.00" meanMaxJamLengthInMeters="0.00" maxJamLengthInVehicles="0" maxJamLengthInMeters="0.00" jamLengthInVehiclesSum="0" jamLengthInMetersSum="0.00" meanHaltingDuration="0.00" maxHaltingDuration="0.00" haltingDurationSum="0.00" meanIntervalHaltingDuration="0.00" maxIntervalHaltingDuration="0.00" intervalHaltingDurationSum="0.00" startedHalts="0.00" meanVehicleNumber="24.23" maxVehicleNumber="27" />
    <interval begin="540.00" end="600.00" id="ramp_eval_0_0" nVehContrib="20" flow="1200.00" occupancy="19.07" speed="8.77" length="5.00" nVehEntered="20"/>
    <interval begin="540.00" end="600.00" id="ramp_eval_2_0" nVehContrib="22" flow="1320.00" occupancy="21.32" speed="8.71" length="5.00" nVehEntered="22"/>
   <interval begin="540.00" end="600.00" id="mainline_up_0_2" sampledSeconds="1056.43" nVehEntered="23" nVehLeft="26" nVehSeen="41" meanSpeed="14.35" meanTimeLoss="4.05" meanOccupancy="10.99" maxOccupancy="12.56" meanMaxJamLengthInVehicles="0.03" meanMaxJamLengthInMeters="0.15" maxJamLengthInVehicles="1" maxJamLengthInMeters="5.00" jamLengthInVehiclesSum="2" jamLengthInMetersSum="8.76" meanHaltingDuration="2.00" maxHaltingDuration="2.00" haltingDurationSum="4.00" meanIntervalHaltingDuration="2.00" maxIntervalHaltingDuration="2.00" intervalHaltingDurationSum="4.00" startedHalts="2.00" meanVehicleNumber="17.87" maxVehicleNumber="21" />
   <interval begin="540.00" end="600.00" id="mainline_up_1_2" sampledSeconds="1389.21" nVehEntered="48" nVehLeft="41" nVehSeen="66" meanSpeed="15.46" meanTimeLoss="3.33" meanOccupancy="14.43" maxOccupancy="16.96" meanMaxJamLengthInVehicles="0.00" meanMaxJamLengthInMeters="0.00" maxJamLengthInVehicles="0" maxJamLengthInMeters="0.00" jamLengthInVehiclesSum="0" jamLengthInMetersSum="0.00" meanHaltingDuration="0.00" maxHaltingDuration="0.00" haltingDurationSum="0.00" meanIntervalHaltingDuration="0.00" maxIntervalHaltingDuration="0.00" intervalHaltingDurationSum="0.00" startedHalts="0.00" meanVehicleNumber="23.67" maxVehicleNumber="27" />
   <interval begin="540.00" end="600.00" id="mainline_up_2_2" sampledSeconds="1491.91" nVehEntered="40" nVehLeft="37" nVehSeen="63" meanSpeed="16.17" meanTimeLoss="3.55" meanOccupancy="15.54" maxOccupancy="16.96" meanMaxJamLengthInVehicles="0.00" meanMaxJamLengthInMeters="0.00" maxJamLengthInVehicles="0" maxJamLengthInMeters="0.00" jamLengthInVehiclesSum="0" jamLengthInMetersSum="0.00" meanHaltingDuration="0.00" maxHaltingDuration="0.00" haltingDurationSum="0.00" meanIntervalHaltingDuration="0.00" maxIntervalHaltingDuration="0.00" intervalHaltingDurationSum="0.00" startedHalts="0.00" meanVehicleNumber="25.45" maxVehicleNumber="28" />
    <interval begin="600.00" end="660.00" id="ramp_eval_0_0" nVehContrib="24" flow="1440.00" occupancy="22.31" speed="8.98" length="5.00" nVehEntered="24"/>
    <interval begin="600.00" end="660.00" id="ramp_eval_2_0" nVehContrib="15" flow="900.00" occupancy="14.07" speed="8.90" length="5.00" nVehEntered="15"/>
   <interval begin="600.00" end="660.00" id="mainline_up_0_2" sampledSeconds="989.61" nVehEntered="30" nVehLeft="31" nVehSeen="45" meanSpeed="16.43" meanTimeLoss="3.10" meanOccupancy="10.24" maxOccupancy="12.56" meanMaxJamLengthInVehicles="0.00" meanMaxJamLengthInMeters="0.00" maxJamLengthInVehicles="0" maxJamLengthInMeters="0.00" jamLengthInVehiclesSum="0" jamLengthInMetersSum="0.00" meanHaltingDuration="0.00" maxHaltingDuration="0.00" haltingDurationSum="0.00" meanIntervalHaltingDuration="0.00" maxIntervalHaltingDuration="0.00" intervalHaltingDurationSum="0.00" startedHalts="0.00" meanVehicleNumber="16.85" maxVehicleNumber="21" />
   <interval begin="600.00" end="660.00" id="mainline_up_1_2" sampledSeconds="1376.92" nVehEntered="41" nVehLeft="44" nVehSeen="66" meanSpeed="18.00" meanTimeLoss="2.58" meanOccupancy="14.29" maxOccupancy="16.96" meanMaxJamLengthInVehicles="0.00" meanMaxJamLengthInMeters="0.00" maxJamLengthInVehicles="0" maxJamLengthInMeters="0.00" jamLengthInVehiclesSum="0" jamLengthInMetersSum="0.00" meanHaltingDuration="0.00" maxHaltingDuration="0.00" haltingDurationSum="0.00" meanIntervalHaltingDuration="0.00" maxIntervalHaltingDuration="0.00" intervalHaltingDurationSum="0.00" startedHalts="0.00" meanVehicleNumber="23.42" maxVehicleNumber="28" />
   <interval begin="600.00" end="660.00" id="mainline_up_2_2" sampledSeconds="1575.13" nVehEntered="37" nVehLeft="40" nVehSeen="63" meanSpeed="18.62" meanTimeLoss="2.62" meanOccupancy="16.37" maxOccupancy="17.92" meanMaxJamLengthInVehicles="0.00" meanMaxJamLengthInMeters="0.00" maxJamLengthInVehicles="0" maxJamLengthInMeters="0.00" jamLengthInVehiclesSum="0" jamLengthInMetersSum="0.00" meanHaltingDuration="0.00" maxHaltingDuration="0.00" haltingDurationSum="0.00" meanIntervalHaltingDuration="0.00" maxIntervalHaltingDuration="0.00" intervalHaltingDurationSum="0.00" startedHalts="0.00" meanVehicleNumber="26.87" maxVehicleNumber="29" />
    <interval begin="660.00" end="720.00" id="ramp_eval_0_0" nVehContrib="16" flow="960.00" occupancy="13.86" speed="9.64" length="5.00" nVehEntered="16"/>
    <interval begin="660.00" end="720.00" id="ramp_eval_2_0" nVehContrib="21" flow="1260.00" occupancy="20.12" speed="8.71" length="5.00" nVehEntered="21"/>
   <interval begin="660.00" end="720.00" id="mainline_up_0_2" sampledSeconds="935.25" nVehEntered="24" nVehLeft="22" nVehSeen="38" meanSpeed="16.19" meanTimeLoss="3.68" meanOccupancy="9.65" maxOccupancy="11.93" meanMaxJamLengthInVehicles="0.15" meanMaxJamLengthInMeters="0.20" maxJamLengthInVehicles="1" maxJamLengthInMeters="2.88" jamLengthInVehiclesSum="9" jamLengthInMetersSum="11.78" meanHaltingDuration="1.00" maxHaltingDuration="1.00" haltingDurationSum="2.00" meanIntervalHaltingDuration="1.00" maxIntervalHaltingDuration="1.00" intervalHaltingDurationSum="2.00" startedHalts="5.00" meanVehicleNumber="15.87" maxVehicleNumber="19" />
   <interval begin="660.00" end="720.00" id="mainline_up_1_2" sampledSeconds="1222.75" nVehEntered="39" nVehLeft="37" nVehSeen="61" meanSpeed="17.14" meanTimeLoss="2.94" meanOccupancy="12.72" maxOccupancy="15.08" meanMaxJamLengthInVehicles="0.00" meanMaxJamLengthInMeters="0.00" maxJamLengthInVehicles="0" maxJamLengthInMeters="0.00" jamLengthInVehiclesSum="0" jamLengthInMetersSum="0.00" meanHaltingDuration="0.00" maxHaltingDuration="0.00" haltingDurationSum="0.00" meanIntervalHaltingDuration="0.00" maxIntervalHaltingDuration="0.00" intervalHaltingDurationSum="0.00" startedHalts="0.00" meanVehicleNumber="20.78" maxVehicleNumber="25" />
   <interval begin="660.00" end="720.00" id="mainline_up_2_2" sampledSeconds="1157.91" nVehEntered="32" nVehLeft="30" nVehSeen="55" meanSpeed="17.88" meanTimeLoss="2.43" meanOccupancy="12.04" maxOccupancy="15.70" meanMaxJamLengthInVehicles="0.00" meanMaxJamLengthInMeters="0.00" maxJamLengthInVehicles="0" maxJamLengthInMeters="0.00" jamLengthInVehiclesSum="0" jamLengthInMetersSum="0.00" meanHaltingDuration="0.00" maxHaltingDuration="0.00" haltingDurationSum="0.00" meanIntervalHaltingDuration="0.00" maxIntervalHaltingDuration="0.00" intervalHaltingDurationSum="0.00" startedHalts="0.00" meanVehicleNumber="19.70" maxVehicleNumber="25" />
    <interval begin="720.00" end="780.00" id="ramp_eval_0_0" nVehContrib="18" flow="1080.00" occupancy="17.14" speed="8.78" length="5.00" nVehEntered="18"/>
    <interval begin="720.00" end="780.00" id="ramp_eval_2_0" nVehContrib="24" flow="1440.00" occupancy="22.98" speed="8.73" length="5.00" nVehEntered="24"/>
   <interval begin="720.00" end="780.00" id="mainline_up_0_2" sampledSeconds="1034.05" nVehEntered="31" nVehLeft="29" nVehSeen="47" meanSpeed="14.74" meanTimeLoss="3.18" meanOccupancy="10.69" maxOccupancy="12.95" meanMaxJamLengthInVehicles="0.13" meanMaxJamLengthInMeters="0.93" maxJamLengthInVehicles="3" maxJamLengthInMeters="23.18" jamLengthInVehiclesSum="8" jamLengthInMetersSum="55.78" meanHaltingDuration="2.67" maxHaltingDuration="5.00" haltingDurationSum="8.00" meanIntervalHaltingDuration="2.67" maxIntervalHaltingDuration="5.00" intervalHaltingDurationSum="8.00" startedHalts="5.00" meanVehicleNumber="17.52" maxVehicleNumber="21" />
   <interval begin="720.00" end="780.00" id="mainline_up_1_2" sampledSeconds="1229.42" nVehEntered="42" nVehLeft="48" nVehSeen="66" meanSpeed="15.94" meanTimeLoss="2.01" meanOccupancy="12.72" maxOccupancy="15.70" meanMaxJamLengthInVehicles="0.00" meanMaxJamLengthInMeters="0.00" maxJamLengthInVehicles="0" maxJamLengthInMeters="0.00" jamLengthInVehiclesSum="0" jamLengthInMetersSum="0.00" meanHaltingDuration="0.00" maxHaltingDuration="0.00" haltingDurationSum="0.00" meanIntervalHaltingDuration="0.00" maxIntervalHaltingDuration="0.00" intervalHaltingDurationSum="0.00" startedHalts="0.00" meanVehicleNumber="20.98" maxVehicleNumber="26" />