<?xml version="1.0" encoding="UTF-8"?>

<!-- generated on 02/27/19 00:22:42 by Eclipse SUMO Version 1.0.1
<configuration xmlns:xsi="http://www.w3.org/2001/XMLSchema-instance" xsi:noNamespaceSchemaLocation="http://sumo.dlr.de/xsd/sumoConfiguration.xsd">

    <input>
        <net-file value="./project/ramp.net.xml"/>
        <route-files value="./project/ramp.rou.xml"/>
        <additional-files value="./project/ramp.add.xml"/>
    </input>

    <time>
        <begin value="0"/>
    </time>

    <report>
        <verbose value="true"/>
        <no-step-log value="true"/>
    </report>

    <traci_server>
        <remote-port value="38124"/>
    </traci_server>

    <random_number>
        <seed value="481755787"/>
    </random_number>

    <gui_only>
        <quit-on-end value="true"/>
        <start value="true"/>
    </gui_only>

</configuration>
-->

<detector xmlns:xsi="http://www.w3.org/2001/XMLSchema-instance" xsi:noNamespaceSchemaLocation="http://sumo.dlr.de/xsd/det_e2_file.xsd">
   <interval begin="0.00" end="60.00" id="mainline_up_0_2" sampledSeconds="0.00" nVehEntered="0" nVehLeft="0" nVehSeen="0" meanSpeed="-1.00" meanTimeLoss="-1.00" meanOccupancy="0.00" maxOccupancy="0.00" meanMaxJamLengthInVehicles="0.00" meanMaxJamLengthInMeters="0.00" maxJamLengthInVehicles="0" maxJamLengthInMeters="0.00" jamLengthInVehiclesSum="0" jamLengthInMetersSum="0.00" meanHaltingDuration="0.00" maxHaltingDuration="0.00" haltingDurationSum="0.00" meanIntervalHaltingDuration="0.00" maxIntervalHaltingDuration="0.00" intervalHaltingDurationSum="0.00" startedHalts="0.00" meanVehicleNumber="0.00" maxVehicleNumber="0" />
   <interval begin="0.00" end="60.00" id="mainline_up_1_2" sampledSeconds="0.00" nVehEntered="0" nVehLeft="0" nVehSeen="0" meanSpeed="-1.00" meanTimeLoss="-1.00" meanOccupancy="0.00" maxOccupancy="0.00" meanMaxJamLengthInVehicles="0.00" meanMaxJamLengthInMeters="0.00" maxJamLengthInVehicles="0" maxJamLengthInMeters="0.00" jamLengthInVehiclesSum="0" jamLengthInMetersSum="0.00" meanHaltingDuration="0.00" maxHaltingDuration="0.00" haltingDurationSum="0.00" meanIntervalHaltingDuration="0.00" maxIntervalHaltingDuration="0.00" intervalHaltingDurationSum="0.00" startedHalts="0.00" meanVehicleNumber="0.00" maxVehicleNumber="0" />
   <interval begin="0.00" end="60.00" id="mainline_up_2_2" sampledSeconds="0.00" nVehEntered="0" nVehLeft="0" nVehSeen="0" meanSpeed="-1.00" meanTimeLoss="-1.00" meanOccupancy="0.00" maxOccupancy="0.00" meanMaxJamLengthInVehicles="0.00" meanMaxJamLengthInMeters="0.00" maxJamLengthInVehicles="0" maxJamLengthInMeters="0.00" jamLengthInVehiclesSum="0" jamLengthInMetersSum="0.00" meanHaltingDuration="0.00" maxHaltingDuration="0.00" haltingDurationSum="0.00" meanIntervalHaltingDuration="0.00" maxIntervalHaltingDuration="0.00" intervalHaltingDurationSum="0.00" startedHalts="0.00" meanVehicleNumber="0.00" maxVehicleNumber="0" />
   <interval begin="60.00" end="120.00" id="mainline_up_0_2" sampledSeconds="401.98" nVehEntered="18" nVehLeft="9" nVehSeen="18" meanSpeed="21.69" meanTimeLoss="0.44" meanOccupancy="4.23" maxOccupancy="7.54" meanMaxJamLengthInVehicles="0.00" meanMaxJamLengthInMeters="0.00" maxJamLengthInVehicles="0" maxJamLengthInMeters="0.00" jamLengthInVehiclesSum="0" jamLengthInMetersSum="0.00" meanHaltingDuration="0.00" maxHaltingDuration="0.00" haltingDurationSum="0.00" meanIntervalHaltingDuration="0.00" maxIntervalHaltingDuration="0.00" intervalHaltingDurationSum="0.00" startedHalts="0.00" meanVehicleNumber="6.90" maxVehicleNumber="12" />
   <interval begin="60.00" end="120.00" id="mainline_up_1_2" sampledSeconds="270.03" nVehEntered="17" nVehLeft="5" nVehSeen="17" meanSpeed="22.35" meanTimeLoss="0.47" meanOccupancy="2.85" maxOccupancy="7.54" meanMaxJamLengthInVehicles="0.00" meanMaxJamLengthInMeters="0.00" maxJamLengthInVehicles="0" maxJamLengthInMeters="0.00" jamLengthInVehiclesSum="0" jamLengthInMetersSum="0.00" meanHaltingDuration="0.00" maxHaltingDuration="0.00" haltingDurationSum="0.00" meanIntervalHaltingDuration="0.00" maxIntervalHaltingDuration="0.00" intervalHaltingDurationSum="0.00" startedHalts="0.00" meanVehicleNumber="4.62" maxVehicleNumber="13" />
   <interval begin="60.00" end="120.00" id="mainline_up_2_2" sampledSeconds="172.25" nVehEntered="11" nVehLeft="3" nVehSeen="11" meanSpeed="23.63" meanTimeLoss="0.44" meanOccupancy="1.84" maxOccupancy="5.03" meanMaxJamLengthInVehicles="0.00" meanMaxJamLengthInMeters="0.00" maxJamLengthInVehicles="0" maxJamLengthInMeters="0.00" jamLengthInVehiclesSum="0" jamLengthInMetersSum="0.00" meanHaltingDuration="0.00" maxHaltingDuration="0.00" haltingDurationSum="0.00" meanIntervalHaltingDuration="0.00" maxIntervalHaltingDuration="0.00" intervalHaltingDurationSum="0.00" startedHalts="0.00" meanVehicleNumber="2.95" maxVehicleNumber="8" />
   <interval begin="120.00" end="180.00" id="mainline_up_0_2" sampledSeconds="591.46" nVehEntered="21" nVehLeft="18" nVehSeen="30" meanSpeed="19.10" meanTimeLoss="0.85" meanOccupancy="6.15" maxOccupancy="8.17" meanMaxJamLengthInVehicles="0.00" meanMaxJamLengthInMeters="0.00" maxJamLengthInVehicles="0" maxJamLengthInMeters="0.00" jamLengthInVehiclesSum="0" jamLengthInMetersSum="0.00" meanHaltingDuration="0.00" maxHaltingDuration="0.00" haltingDurationSum="0.00" meanIntervalHaltingDuration="0.00" maxIntervalHaltingDuration="0.00" intervalHaltingDurationSum="0.00" startedHalts="0.00" meanVehicleNumber="10.07" maxVehicleNumber="14" />
   <interval begin="120.00" end="180.00" id="mainline_up_1_2" sampledSeconds="862.85" nVehEntered="35" nVehLeft="27" nVehSeen="47" meanSpeed="20.09" meanTimeLoss="1.53" meanOccupancy="9.02" maxOccupancy="12.22" meanMaxJamLengthInVehicles="0.00" meanMaxJamLengthInMeters="0.00" maxJamLengthInVehicles="0" maxJamLengthInMeters="0.00" jamLengthInVehiclesSum="0" jamLengthInMetersSum="0.00" meanHaltingDuration="0.00" maxHaltingDuration="0.00" haltingDurationSum="0.00" meanIntervalHaltingDuration="0.00" maxIntervalHaltingDuration="0.00" intervalHaltingDurationSum="0.00" startedHalts="0.00" meanVehicleNumber="14.75" maxVehicleNumber="20" />
   <interval begin="120.00" end="180.00" id="mainline_up_2_2" sampledSeconds="1065.93" nVehEntered="33" nVehLeft="22" nVehSeen="41" meanSpeed="20.82" meanTimeLoss="2.94" meanOccupancy="11.14" maxOccupancy="14.70" meanMaxJamLengthInVehicles="0.00" meanMaxJamLengthInMeters="0.00" maxJamLengthInVehicles="0" maxJamLengthInMeters="0.00" jamLengthInVehiclesSum="0" jamLengthInMetersSum="0.00" meanHaltingDuration="0.00" maxHaltingDuration="0.00" haltingDurationSum="0.00" meanIntervalHaltingDuration="0.00" maxIntervalHaltingDuration="0.00" intervalHaltingDurationSum="0.00" startedHalts="0.00" meanVehicleNumber="18.18" maxVehicleNumber="24" />
   <interval begin="180.00" end="240.00" id="mainline_up_0_2" sampledSeconds="618.37" nVehEntered="16" nVehLeft="18" nVehSeen="28" meanSpeed="17.89" meanTimeLoss="1.43" meanOccupancy="6.43" maxOccupancy="7.54" meanMaxJamLengthInVehicles="0.00" meanMaxJamLengthInMeters="0.00" maxJamLengthInVehicles="0" maxJamLengthInMeters="0.00" jamLengthInVehiclesSum="0" jamLengthInMetersSum="0.00" meanHaltingDuration="0.00" maxHaltingDuration="0.00" haltingDurationSum="0.00" meanIntervalHaltingDuration="0.00" maxIntervalHaltingDuration="0.00" intervalHaltingDurationSum="0.00" startedHalts="0.00" meanVehicleNumber="10.48" maxVehicleNumber="12" />
   <interval begin="180.00" end="240.00" id="mainline_up_1_2" sampledSeconds="1165.19" nVehEntered="35" nVehLeft="37" nVehSeen="55" meanSpeed="20.16" meanTimeLoss="1.39" meanOccupancy="12.10" maxOccupancy="13.82" meanMaxJamLengthInVehicles="0.00" meanMaxJamLengthInMeters="0.00" maxJamLengthInVehicles="0" maxJamLengthInMeters="0.00" jamLengthInVehiclesSum="0" jamLengthInMetersSum="0.00" meanHaltingDuration="0.00" maxHaltingDuration="0.00" haltingDurationSum="0.00" meanIntervalHaltingDuration="0.00" maxIntervalHaltingDuration="0.00" intervalHaltingDurationSum="0.00" startedHalts="0.00" meanVehicleNumber="19.87" maxVehicleNumber="23" />
   <interval begin="180.00" end="240.00" id="mainline_up_2_2" sampledSeconds="1302.70" nVehEntered="37" nVehLeft="35" nVehSeen="56" meanSpeed="21.07" meanTimeLoss="2.30" meanOccupancy="13.53" maxOccupancy="14.75" meanMaxJamLengthInVehicles="0.00" meanMaxJamLengthInMeters="0.00" maxJamLengthInVehicles="0" maxJamLengthInMeters="0.00" jamLengthInVehiclesSum="0" jamLengthInMetersSum="0.00" meanHaltingDuration="0.00" maxHaltingDuration="0.00" haltingDurationSum="0.00" meanIntervalHaltingDuration="0.00" maxIntervalHaltingDuration="0.00" intervalHaltingDurationSum="0.00" startedHalts="0.00" meanVehicleNumber="22.27" maxVehicleNumber="24" />
   <interval begin="240.00" end="300.00" id="mainline_up_0_2" sampledSeconds="646.55" nVehEntered="19" nVehLeft="19" nVehSeen="29" meanSpeed="17.30" meanTimeLoss="1.90" meanOccupancy="6.72" maxOccupancy="8.79" meanMaxJamLengthInVehicles="0.00" meanMaxJamLengthInMeters="0.00" maxJamLengthInVehicles="0" maxJamLengthInMeters="0.00" jamLengthInVehiclesSum="0" jamLengthInMetersSum="0.00" meanHaltingDuration="0.00" maxHaltingDuration="0.00" haltingDurationSum="0.00" meanIntervalHaltingDuration="0.00" maxIntervalHaltingDuration="0.00" intervalHaltingDurationSum="0.00" startedHalts="0.00" meanVehicleNumber="10.95" maxVehicleNumber="14" />
   <interval begin="240.00" end="300.00" id="mainline_up_1_2" sampledSeconds="1170.23" nVehEntered="40" nVehLeft="39" nVehSeen="58" meanSpeed="19.26" meanTimeLoss="2.35" meanOccupancy="12.19" maxOccupancy="14.37" meanMaxJamLengthInVehicles="0.00" meanMaxJamLengthInMeters="0.00" maxJamLengthInVehicles="0" maxJamLengthInMeters="0.00" jamLengthInVehiclesSum="0" jamLengthInMetersSum="0.00" meanHaltingDuration="0.00" maxHaltingDuration="0.00" haltingDurationSum="0.00" meanIntervalHaltingDuration="0.00" maxIntervalHaltingDuration="0.00" intervalHaltingDurationSum="0.00" startedHalts="0.00" meanVehicleNumber="20.07" maxVehicleNumber="23" />
   <interval begin="240.00" end="300.00" id="mainline_up_2_2" sampledSeconds="1328.65" nVehEntered="38" nVehLeft="37" nVehSeen="59" meanSpeed="20.89" meanTimeLoss="2.42" meanOccupancy="13.81" maxOccupancy="15.08" meanMaxJamLengthInVehicles="0.00" meanMaxJamLengthInMeters="0.00" maxJamLengthInVehicles="0" maxJamLengthInMeters="0.00" jamLengthInVehiclesSum="0" jamLengthInMetersSum="0.00" meanHaltingDuration="0.00" maxHaltingDuration="0.00" haltingDurationSum="0.00" meanIntervalHaltingDuration="0.00" maxIntervalHaltingDuration="0.00" intervalHaltingDurationSum="0.00" startedHalts="0.00" meanVehicleNumber="22.72" maxVehicleNumber="25" />
   <interval begin="300.00" end="360.00" id="mainline_up_0_2" sampledSeconds="1021.10" nVehEntered="31" nVehLeft="19" nVehSeen="41" meanSpeed="13.26" meanTimeLoss="2.90" meanOccupancy="10.64" maxOccupancy="14.45" meanMaxJamLengthInVehicles="0.00" meanMaxJamLengthInMeters="0.00" maxJamLengthInVehicles="0" maxJamLengthInMeters="0.00" jamLengthInVehiclesSum="0" jamLengthInMetersSum="0.00" meanHaltingDuration="0.00" maxHaltingDuration="0.00" haltingDurationSum="0.00" meanIntervalHaltingDuration="0.00" maxIntervalHaltingDuration="0.00" intervalHaltingDurationSum="0.00" startedHalts="0.00" meanVehicleNumber="17.23" maxVehicleNumber="23" />
   <interval begin="300.00" end="360.00" id="mainline_up_1_2" sampledSeconds="1237.49" nVehEntered="42" nVehLeft="34" nVehSeen="61" meanSpeed="13.22" meanTimeLoss="2.94" meanOccupancy="12.89" maxOccupancy="16.96" meanMaxJamLengthInVehicles="0.00" meanMaxJamLengthInMeters="0.00" maxJamLengthInVehicles="0" maxJamLengthInMeters="0.00" jamLengthInVehiclesSum="0" jamLengthInMetersSum="0.00" meanHaltingDuration="0.00" maxHaltingDuration="0.00" haltingDurationSum="0.00" meanIntervalHaltingDuration="0.00" maxIntervalHaltingDuration="0.00" intervalHaltingDurationSum="0.00" startedHalts="0.00" meanVehicleNumber="21.05" maxVehicleNumber="27" />
   <interval begin="300.00" end="360.00" id="mainline_up_2_2" sampledSeconds="1448.49" nVehEntered="32" nVehLeft="30" nVehSeen="54" meanSpeed="13.27" meanTimeLoss="3.99" meanOccupancy="15.13" maxOccupancy="16.42" meanMaxJamLengthInVehicles="0.00" meanMaxJamLengthInMeters="0.00" maxJamLengthInVehicles="0" maxJamLengthInMeters="0.00" jamLengthInVehiclesSum="0" jamLengthInMetersSum="0.00" meanHaltingDuration="0.00" maxHaltingDuration="0.00" haltingDurationSum="0.00" meanIntervalHaltingDuration="0.00" maxIntervalHaltingDuration="0.00" intervalHaltingDurationSum="0.00" startedHalts="0.00" meanVehicleNumber="24.60" maxVehicleNumber="27" />
   <interval begin="360.00" end="420.00" id="mainline_up_0_2" sampledSeconds="1360.51" nVehEntered="27" nVehLeft="28" nVehSeen="49" meanSpeed="13.97" meanTimeLoss="5.13" meanOccupancy="14.11" maxOccupancy="15.73" meanMaxJamLengthInVehicles="0.10" meanMaxJamLengthInMeters="0.45" maxJamLengthInVehicles="1" maxJamLengthInMeters="5.00" jamLengthInVehiclesSum="6" jamLengthInMetersSum="27.07" meanHaltingDuration="1.75" maxHaltingDuration="2.00" haltingDurationSum="14.00" meanIntervalHaltingDuration="1.75" maxIntervalHaltingDuration="2.00" intervalHaltingDurationSum="14.00" startedHalts="9.00" meanVehicleNumber="23.00" maxVehicleNumber="26" />
   <interval begin="360.00" end="420.00" id="mainline_up_1_2" sampledSeconds="1655.98" nVehEntered="38" nVehLeft="39" nVehSeen="65" meanSpeed="14.34" meanTimeLoss="4.71" meanOccupancy="17.20" maxOccupancy="18.64" meanMaxJamLengthInVehicles="0.00" meanMaxJamLengthInMeters="0.00" maxJamLengthInVehicles="0" maxJamLengthInMeters="0.00" jamLengthInVehiclesSum="0" jamLengthInMetersSum="0.00" meanHaltingDuration="0.00" maxHaltingDuration="0.00" haltingDurationSum="0.00" meanIntervalHaltingDuration="0.00" maxIntervalHaltingDuration="0.00" intervalHaltingDurationSum="0.00" startedHalts="0.00" meanVehicleNumber="28.08" maxVehicleNumber="31" />
   <interval begin="360.00" end="420.00" id="mainline_up_2_2" sampledSeconds="1726.12" nVehEntered="39" nVehLeft="32" nVehSeen="63" meanSpeed="14.29" meanTimeLoss="5.11" meanOccupancy="17.97" maxOccupancy="20.45" meanMaxJamLengthInVehicles="0.00" meanMaxJamLengthInMeters="0.00" maxJamLengthInVehicles="0" maxJamLengthInMeters="0.00" jamLengthInVehiclesSum="0" jamLengthInMetersSum="0.00" meanHaltingDuration="0.00" maxHaltingDuration="0.00" haltingDurationSum="0.00" meanIntervalHaltingDuration="0.00" maxIntervalHaltingDuration="0.00" intervalHaltingDurationSum="0.00" startedHalts="0.00" meanVehicleNumber="29.28" maxVehicleNumber="33" />
   <interval begin="420.00" end="480.00" id="mainline_up_0_2" sampledSeconds="1205.53" nVehEntered="33" nVehLeft="28" nVehSeen="54" meanSpeed="12.45" meanTimeLoss="4.40" meanOccupancy="12.45" maxOccupancy="16.96" meanMaxJamLengthInVehicles="0.00" meanMaxJamLengthInMeters="0.00" maxJamLengthInVehicles="0" maxJamLengthInMeters="0.00" jamLengthInVehiclesSum="0" jamLengthInMetersSum="0.00" meanHaltingDuration="1.00" maxHaltingDuration="1.00" haltingDurationSum="2.00" meanIntervalHaltingDuration="1.00" maxIntervalHaltingDuration="1.00" intervalHaltingDurationSum="2.00" startedHalts="2.00" meanVehicleNumber="20.42" maxVehicleNumber="28" />
   <interval begin="420.00" end="480.00" id="mainline_up_1_2" sampledSeconds="1389.98" nVehEntered="50" nVehLeft="53" nVehSeen="76" meanSpeed="14.23" meanTimeLoss="2.25" meanOccupancy="14.44" maxOccupancy="16.96" meanMaxJamLengthInVehicles="0.00" meanMaxJamLengthInMeters="0.00" maxJamLengthInVehicles="0" maxJamLengthInMeters="0.00" jamLengthInVehiclesSum="0" jamLengthInMetersSum="0.00" meanHaltingDuration="0.00" maxHaltingDuration="0.00" haltingDurationSum="0.00" meanIntervalHaltingDuration="0.00" maxIntervalHaltingDuration="0.00" intervalHaltingDurationSum="0.00" startedHalts="0.00" meanVehicleNumber="23.60" maxVehicleNumber="28" />
   <interval begin="420.00" end="480.00" id="mainline_up_2_2" sampledSeconds="1657.21" nVehEntered="38" nVehLeft="46" nVehSeen="69" meanSpeed="14.36" meanTimeLoss="2.82" meanOccupancy="17.25" maxOccupancy="19.77" meanMaxJamLengthInVehicles="0.00" meanMaxJamLengthInMeters="0.00" maxJamLengthInVehicles="0" maxJamLengthInMeters="0.00" jamLengthInVehiclesSum="0" jamLengthInMetersSum="0.00" meanHaltingDuration="0.00" maxHaltingDuration="0.00" haltingDurationSum="0.00" meanIntervalHaltingDuration="0.00" maxIntervalHaltingDuration="0.00" intervalHaltingDurationSum="0.00" startedHalts="0.00" meanVehicleNumber="28.17" maxVehicleNumber="32" />
</detector>
