<?xml version="1.0" encoding="UTF-8"?>

<!-- generated on 02/22/19 16:47:06 by Eclipse SUMO Version 1.0.1
<configuration xmlns:xsi="http://www.w3.org/2001/XMLSchema-instance" xsi:noNamespaceSchemaLocation="http://sumo.dlr.de/xsd/sumoConfiguration.xsd">

    <input>
        <net-file value="./project/ramp.net.xml"/>
        <route-files value="./project/ramp.rou.xml"/>
        <additional-files value="./project/ramp.add.xml"/>
    </input>

    <time>
        <begin value="0"/>
    </time>

    <report>
        <verbose value="true"/>
        <no-step-log value="true"/>
    </report>

    <traci_server>
        <remote-port value="59561"/>
    </traci_server>

    <random_number>
        <seed value="211661479"/>
    </random_number>

    <gui_only>
        <quit-on-end value="true"/>
        <start value="true"/>
    </gui_only>

</configuration>
-->

<detector xmlns:xsi="http://www.w3.org/2001/XMLSchema-instance" xsi:noNamespaceSchemaLocation="http://sumo.dlr.de/xsd/det_e1_file.xsd">
    <interval begin="0.00" end="60.00" id="ramp_eval_0_0" nVehContrib="3" flow="180.00" occupancy="2.21" speed="11.31" length="5.00" nVehEntered="3"/>
    <interval begin="0.00" end="60.00" id="ramp_eval_2_0" nVehContrib="0" flow="0.00" occupancy="0.00" speed="-1.00" length="-1.00" nVehEntered="0"/>
   <interval begin="0.00" end="60.00" id="mainline_up_0_0" sampledSeconds="352.08" nVehEntered="21" nVehLeft="7" nVehSeen="21" meanSpeed="17.60" meanTimeLoss="2.41" meanOccupancy="4.23" maxOccupancy="10.00" meanMaxJamLengthInVehicles="0.00" meanMaxJamLengthInMeters="0.00" maxJamLengthInVehicles="0" maxJamLengthInMeters="0.00" jamLengthInVehiclesSum="0" jamLengthInMetersSum="0.00" meanHaltingDuration="0.00" maxHaltingDuration="0.00" haltingDurationSum="0.00" meanIntervalHaltingDuration="0.00" maxIntervalHaltingDuration="0.00" intervalHaltingDurationSum="0.00" startedHalts="0.00" meanVehicleNumber="6.02" maxVehicleNumber="14" />
   <interval begin="0.00" end="60.00" id="mainline_up_1_0" sampledSeconds="330.32" nVehEntered="24" nVehLeft="11" nVehSeen="24" meanSpeed="18.95" meanTimeLoss="1.68" meanOccupancy="3.96" maxOccupancy="9.29" meanMaxJamLengthInVehicles="0.00" meanMaxJamLengthInMeters="0.00" maxJamLengthInVehicles="0" maxJamLengthInMeters="0.00" jamLengthInVehiclesSum="0" jamLengthInMetersSum="0.00" meanHaltingDuration="0.00" maxHaltingDuration="0.00" haltingDurationSum="0.00" meanIntervalHaltingDuration="0.00" maxIntervalHaltingDuration="0.00" intervalHaltingDurationSum="0.00" startedHalts="0.00" meanVehicleNumber="5.63" maxVehicleNumber="14" />
   <interval begin="0.00" end="60.00" id="mainline_up_2_0" sampledSeconds="379.98" nVehEntered="20" nVehLeft="8" nVehSeen="20" meanSpeed="20.77" meanTimeLoss="2.12" meanOccupancy="4.54" maxOccupancy="9.29" meanMaxJamLengthInVehicles="0.00" meanMaxJamLengthInMeters="0.00" maxJamLengthInVehicles="0" maxJamLengthInMeters="0.00" jamLengthInVehiclesSum="0" jamLengthInMetersSum="0.00" meanHaltingDuration="0.00" maxHaltingDuration="0.00" haltingDurationSum="0.00" meanIntervalHaltingDuration="0.00" maxIntervalHaltingDuration="0.00" intervalHaltingDurationSum="0.00" startedHalts="0.00" meanVehicleNumber="6.50" maxVehicleNumber="14" />
   <interval begin="0.00" end="60.00" id="mainline_up_0_1" sampledSeconds="23.50" nVehEntered="2" nVehLeft="0" nVehSeen="2" meanSpeed="18.23" meanTimeLoss="0.20" meanOccupancy="0.29" maxOccupancy="1.43" meanMaxJamLengthInVehicles="0.00" meanMaxJamLengthInMeters="0.00" maxJamLengthInVehicles="0" maxJamLengthInMeters="0.00" jamLengthInVehiclesSum="0" jamLengthInMetersSum="0.00" meanHaltingDuration="0.00" maxHaltingDuration="0.00" haltingDurationSum="0.00" meanIntervalHaltingDuration="0.00" maxIntervalHaltingDuration="0.00" intervalHaltingDurationSum="0.00" startedHalts="0.00" meanVehicleNumber="0.40" maxVehicleNumber="2" />
   <interval begin="0.00" end="60.00" id="mainline_up_1_1" sampledSeconds="43.22" nVehEntered="6" nVehLeft="1" nVehSeen="6" meanSpeed="21.80" meanTimeLoss="0.13" meanOccupancy="0.54" maxOccupancy="4.29" meanMaxJamLengthInVehicles="0.00" meanMaxJamLengthInMeters="0.00" maxJamLengthInVehicles="0" maxJamLengthInMeters="0.00" jamLengthInVehiclesSum="0" jamLengthInMetersSum="0.00" meanHaltingDuration="0.00" maxHaltingDuration="0.00" haltingDurationSum="0.00" meanIntervalHaltingDuration="0.00" maxIntervalHaltingDuration="0.00" intervalHaltingDurationSum="0.00" startedHalts="0.00" meanVehicleNumber="0.75" maxVehicleNumber="6" />
   <interval begin="0.00" end="60.00" id="mainline_up_2_1" sampledSeconds="39.80" nVehEntered="7" nVehLeft="2" nVehSeen="7" meanSpeed="23.33" meanTimeLoss="0.12" meanOccupancy="0.51" maxOccupancy="3.57" meanMaxJamLengthInVehicles="0.00" meanMaxJamLengthInMeters="0.00" maxJamLengthInVehicles="0" maxJamLengthInMeters="0.00" jamLengthInVehiclesSum="0" jamLengthInMetersSum="0.00" meanHaltingDuration="0.00" maxHaltingDuration="0.00" haltingDurationSum="0.00" meanIntervalHaltingDuration="0.00" maxIntervalHaltingDuration="0.00" intervalHaltingDurationSum="0.00" startedHalts="0.00" meanVehicleNumber="0.73" maxVehicleNumber="5" />
   <interval begin="0.00" end="60.00" id="mainline_up_0_2" sampledSeconds="0.00" nVehEntered="0" nVehLeft="0" nVehSeen="0" meanSpeed="-1.00" meanTimeLoss="-1.00" meanOccupancy="0.00" maxOccupancy="0.00" meanMaxJamLengthInVehicles="0.00" meanMaxJamLengthInMeters="0.00" maxJamLengthInVehicles="0" maxJamLengthInMeters="0.00" jamLengthInVehiclesSum="0" jamLengthInMetersSum="0.00" meanHaltingDuration="0.00" maxHaltingDuration="0.00" haltingDurationSum="0.00" meanIntervalHaltingDuration="0.00" maxIntervalHaltingDuration="0.00" intervalHaltingDurationSum="0.00" startedHalts="0.00" meanVehicleNumber="0.00" maxVehicleNumber="0" />
   <interval begin="0.00" end="60.00" id="mainline_up_1_2" sampledSeconds="0.00" nVehEntered="0" nVehLeft="0" nVehSeen="0" meanSpeed="-1.00" meanTimeLoss="-1.00" meanOccupancy="0.00" maxOccupancy="0.00" meanMaxJamLengthInVehicles="0.00" meanMaxJamLengthInMeters="0.00" maxJamLengthInVehicles="0" maxJamLengthInMeters="0.00" jamLengthInVehiclesSum="0" jamLengthInMetersSum="0.00" meanHaltingDuration="0.00" maxHaltingDuration="0.00" haltingDurationSum="0.00" meanIntervalHaltingDuration="0.00" maxIntervalHaltingDuration="0.00" intervalHaltingDurationSum="0.00" startedHalts="0.00" meanVehicleNumber="0.00" maxVehicleNumber="0" />
   <interval begin="0.00" end="60.00" id="mainline_up_2_2" sampledSeconds="0.00" nVehEntered="0" nVehLeft="0" nVehSeen="0" meanSpeed="-1.00" meanTimeLoss="-1.00" meanOccupancy="0.00" maxOccupancy="0.00" meanMaxJamLengthInVehicles="0.00" meanMaxJamLengthInMeters="0.00" maxJamLengthInVehicles="0" maxJamLengthInMeters="0.00" jamLengthInVehiclesSum="0" jamLengthInMetersSum="0.00" meanHaltingDuration="0.00" maxHaltingDuration="0.00" haltingDurationSum="0.00" meanIntervalHaltingDuration="0.00" maxIntervalHaltingDuration="0.00" intervalHaltingDurationSum="0.00" startedHalts="0.00" meanVehicleNumber="0.00" maxVehicleNumber="0" />
    <interval begin="60.00" end="120.00" id="ramp_eval_0_0" nVehContrib="21" flow="1260.00" occupancy="19.26" speed="9.20" length="5.00" nVehEntered="21"/>
    <interval begin="60.00" end="120.00" id="ramp_eval_2_0" nVehContrib="1" flow="60.00" occupancy="1.30" speed="11.27" length="5.00" nVehEntered="2"/>
   <interval begin="60.00" end="120.00" id="mainline_up_0_0" sampledSeconds="863.60" nVehEntered="33" nVehLeft="32" nVehSeen="47" meanSpeed="17.85" meanTimeLoss="2.63" meanOccupancy="10.23" maxOccupancy="12.14" meanMaxJamLengthInVehicles="0.00" meanMaxJamLengthInMeters="0.00" maxJamLengthInVehicles="0" maxJamLengthInMeters="0.00" jamLengthInVehiclesSum="0" jamLengthInMetersSum="0.00" meanHaltingDuration="0.00" maxHaltingDuration="0.00" haltingDurationSum="0.00" meanIntervalHaltingDuration="0.00" maxIntervalHaltingDuration="0.00" intervalHaltingDurationSum="0.00" startedHalts="0.00" meanVehicleNumber="14.75" maxVehicleNumber="17" />
   <interval begin="60.00" end="120.00" id="mainline_up_1_0" sampledSeconds="903.74" nVehEntered="42" nVehLeft="42" nVehSeen="55" meanSpeed="18.70" meanTimeLoss="2.23" meanOccupancy="10.69" maxOccupancy="12.86" meanMaxJamLengthInVehicles="0.00" meanMaxJamLengthInMeters="0.00" maxJamLengthInVehicles="0" maxJamLengthInMeters="0.00" jamLengthInVehiclesSum="0" jamLengthInMetersSum="0.00" meanHaltingDuration="0.00" maxHaltingDuration="0.00" haltingDurationSum="0.00" meanIntervalHaltingDuration="0.00" maxIntervalHaltingDuration="0.00" intervalHaltingDurationSum="0.00" startedHalts="0.00" meanVehicleNumber="15.43" maxVehicleNumber="19" />
   <interval begin="60.00" end="120.00" id="mainline_up_2_0" sampledSeconds="984.63" nVehEntered="39" nVehLeft="33" nVehSeen="51" meanSpeed="20.30" meanTimeLoss="2.51" meanOccupancy="11.61" maxOccupancy="13.57" meanMaxJamLengthInVehicles="0.00" meanMaxJamLengthInMeters="0.00" maxJamLengthInVehicles="0" maxJamLengthInMeters="0.00" jamLengthInVehiclesSum="0" jamLengthInMetersSum="0.00" meanHaltingDuration="0.00" maxHaltingDuration="0.00" haltingDurationSum="0.00" meanIntervalHaltingDuration="0.00" maxIntervalHaltingDuration="0.00" intervalHaltingDurationSum="0.00" startedHalts="0.00" meanVehicleNumber="16.87" maxVehicleNumber="20" />
   <interval begin="60.00" end="120.00" id="mainline_up_0_1" sampledSeconds="504.07" nVehEntered="23" nVehLeft="11" nVehSeen="25" meanSpeed="18.08" meanTimeLoss="2.01" meanOccupancy="6.03" maxOccupancy="10.00" meanMaxJamLengthInVehicles="0.00" meanMaxJamLengthInMeters="0.00" maxJamLengthInVehicles="0" maxJamLengthInMeters="0.00" jamLengthInVehiclesSum="0" jamLengthInMetersSum="0.00" meanHaltingDuration="0.00" maxHaltingDuration="0.00" haltingDurationSum="0.00" meanIntervalHaltingDuration="0.00" maxIntervalHaltingDuration="0.00" intervalHaltingDurationSum="0.00" startedHalts="0.00" meanVehicleNumber="8.60" maxVehicleNumber="15" />
   <interval begin="60.00" end="120.00" id="mainline_up_1_1" sampledSeconds="654.56" nVehEntered="32" nVehLeft="20" nVehSeen="37" meanSpeed="19.29" meanTimeLoss="1.88" meanOccupancy="7.81" maxOccupancy="12.14" meanMaxJamLengthInVehicles="0.00" meanMaxJamLengthInMeters="0.00" maxJamLengthInVehicles="0" maxJamLengthInMeters="0.00" jamLengthInVehiclesSum="0" jamLengthInMetersSum="0.00" meanHaltingDuration="0.00" maxHaltingDuration="0.00" haltingDurationSum="0.00" meanIntervalHaltingDuration="0.00" maxIntervalHaltingDuration="0.00" intervalHaltingDurationSum="0.00" startedHalts="0.00" meanVehicleNumber="11.12" maxVehicleNumber="17" />
   <interval begin="60.00" end="120.00" id="mainline_up_2_1" sampledSeconds="653.01" nVehEntered="37" nVehLeft="22" nVehSeen="42" meanSpeed="21.76" meanTimeLoss="1.29" meanOccupancy="7.78" maxOccupancy="14.29" meanMaxJamLengthInVehicles="0.00" meanMaxJamLengthInMeters="0.00" maxJamLengthInVehicles="0" maxJamLengthInMeters="0.00" jamLengthInVehiclesSum="0" jamLengthInMetersSum="0.00" meanHaltingDuration="0.00" maxHaltingDuration="0.00" haltingDurationSum="0.00" meanIntervalHaltingDuration="0.00" maxIntervalHaltingDuration="0.00" intervalHaltingDurationSum="0.00" startedHalts="0.00" meanVehicleNumber="11.25" maxVehicleNumber="20" />
   <interval begin="60.00" end="120.00" id="mainline_up_0_2" sampledSeconds="258.83" nVehEntered="12" nVehLeft="3" nVehSeen="12" meanSpeed="20.88" meanTimeLoss="0.37" meanOccupancy="2.72" maxOccupancy="5.65" meanMaxJamLengthInVehicles="0.00" meanMaxJamLengthInMeters="0.00" maxJamLengthInVehicles="0" maxJamLengthInMeters="0.00" jamLengthInVehiclesSum="0" jamLengthInMetersSum="0.00" meanHaltingDuration="0.00" maxHaltingDuration="0.00" haltingDurationSum="0.00" meanIntervalHaltingDuration="0.00" maxIntervalHaltingDuration="0.00" intervalHaltingDurationSum="0.00" startedHalts="0.00" meanVehicleNumber="4.40" maxVehicleNumber="9" />
   <interval begin="60.00" end="120.00" id="mainline_up_1_2" sampledSeconds="129.41" nVehEntered="11" nVehLeft="7" nVehSeen="11" meanSpeed="21.00" meanTimeLoss="0.27" meanOccupancy="1.38" maxOccupancy="3.77" meanMaxJamLengthInVehicles="0.00" meanMaxJamLengthInMeters="0.00" maxJamLengthInVehicles="0" maxJamLengthInMeters="0.00" jamLengthInVehiclesSum="0" jamLengthInMetersSum="0.00" meanHaltingDuration="0.00" maxHaltingDuration="0.00" haltingDurationSum="0.00" meanIntervalHaltingDuration="0.00" maxIntervalHaltingDuration="0.00" intervalHaltingDurationSum="0.00" startedHalts="0.00" meanVehicleNumber="2.23" maxVehicleNumber="6" />
   <interval begin="60.00" end="120.00" id="mainline_up_2_2" sampledSeconds="313.80" nVehEntered="16" nVehLeft="3" nVehSeen="16" meanSpeed="22.98" meanTimeLoss="0.73" meanOccupancy="3.36" maxOccupancy="8.79" meanMaxJamLengthInVehicles="0.00" meanMaxJamLengthInMeters="0.00" maxJamLengthInVehicles="0" maxJamLengthInMeters="0.00" jamLengthInVehiclesSum="0" jamLengthInMetersSum="0.00" meanHaltingDuration="0.00" maxHaltingDuration="0.00" haltingDurationSum="0.00" meanIntervalHaltingDuration="0.00" maxIntervalHaltingDuration="0.00" intervalHaltingDurationSum="0.00" startedHalts="0.00" meanVehicleNumber="5.37" maxVehicleNumber="14" />
    <interval begin="120.00" end="180.00" id="ramp_eval_0_0" nVehContrib="20" flow="1200.00" occupancy="21.37" speed="7.85" length="5.00" nVehEntered="20"/>
    <interval begin="120.00" end="180.00" id="ramp_eval_2_0" nVehContrib="12" flow="720.00" occupancy="11.02" speed="9.32" length="5.00" nVehEntered="12"/>
   <interval begin="120.00" end="180.00" id="mainline_up_0_0" sampledSeconds="857.66" nVehEntered="29" nVehLeft="28" nVehSeen="44" meanSpeed="17.39" meanTimeLoss="2.81" meanOccupancy="10.19" maxOccupancy="12.86" meanMaxJamLengthInVehicles="0.00" meanMaxJamLengthInMeters="0.00" maxJamLengthInVehicles="0" maxJamLengthInMeters="0.00" jamLengthInVehiclesSum="0" jamLengthInMetersSum="0.00" meanHaltingDuration="0.00" maxHaltingDuration="0.00" haltingDurationSum="0.00" meanIntervalHaltingDuration="0.00" maxIntervalHaltingDuration="0.00" intervalHaltingDurationSum="0.00" startedHalts="0.00" meanVehicleNumber="14.62" maxVehicleNumber="18" />
   <interval begin="120.00" end="180.00" id="mainline_up_1_0" sampledSeconds="953.50" nVehEntered="40" nVehLeft="37" nVehSeen="53" meanSpeed="18.42" meanTimeLoss="3.12" meanOccupancy="11.28" maxOccupancy="14.29" meanMaxJamLengthInVehicles="0.00" meanMaxJamLengthInMeters="0.00" maxJamLengthInVehicles="0" maxJamLengthInMeters="0.00" jamLengthInVehiclesSum="0" jamLengthInMetersSum="0.00" meanHaltingDuration="0.00" maxHaltingDuration="0.00" haltingDurationSum="0.00" meanIntervalHaltingDuration="0.00" maxIntervalHaltingDuration="0.00" intervalHaltingDurationSum="0.00" startedHalts="0.00" meanVehicleNumber="16.37" maxVehicleNumber="20" />
   <interval begin="120.00" end="180.00" id="mainline_up_2_0" sampledSeconds="1164.91" nVehEntered="36" nVehLeft="34" nVehSeen="54" meanSpeed="19.80" meanTimeLoss="3.07" meanOccupancy="13.72" maxOccupancy="16.43" meanMaxJamLengthInVehicles="0.00" meanMaxJamLengthInMeters="0.00" maxJamLengthInVehicles="0" maxJamLengthInMeters="0.00" jamLengthInVehiclesSum="0" jamLengthInMetersSum="0.00" meanHaltingDuration="0.00" maxHaltingDuration="0.00" haltingDurationSum="0.00" meanIntervalHaltingDuration="0.00" maxIntervalHaltingDuration="0.00" intervalHaltingDurationSum="0.00" startedHalts="0.00" meanVehicleNumber="19.90" maxVehicleNumber="24" />
   <interval begin="120.00" end="180.00" id="mainline_up_0_1" sampledSeconds="670.81" nVehEntered="20" nVehLeft="24" nVehSeen="34" meanSpeed="17.77" meanTimeLoss="2.01" meanOccupancy="7.91" maxOccupancy="10.71" meanMaxJamLengthInVehicles="0.00" meanMaxJamLengthInMeters="0.00" maxJamLengthInVehicles="0" maxJamLengthInMeters="0.00" jamLengthInVehiclesSum="0" jamLengthInMetersSum="0.00" meanHaltingDuration="0.00" maxHaltingDuration="0.00" haltingDurationSum="0.00" meanIntervalHaltingDuration="0.00" maxIntervalHaltingDuration="0.00" intervalHaltingDurationSum="0.00" startedHalts="0.00" meanVehicleNumber="11.48" maxVehicleNumber="16" />
   <interval begin="120.00" end="180.00" id="mainline_up_1_1" sampledSeconds="1029.71" nVehEntered="34" nVehLeft="36" nVehSeen="51" meanSpeed="19.21" meanTimeLoss="2.38" meanOccupancy="12.16" maxOccupancy="13.57" meanMaxJamLengthInVehicles="0.00" meanMaxJamLengthInMeters="0.00" maxJamLengthInVehicles="0" maxJamLengthInMeters="0.00" jamLengthInVehiclesSum="0" jamLengthInMetersSum="0.00" meanHaltingDuration="0.00" maxHaltingDuration="0.00" haltingDurationSum="0.00" meanIntervalHaltingDuration="0.00" maxIntervalHaltingDuration="0.00" intervalHaltingDurationSum="0.00" startedHalts="0.00" meanVehicleNumber="17.57" maxVehicleNumber="20" />
   <interval begin="120.00" end="180.00" id="mainline_up_2_1" sampledSeconds="1159.85" nVehEntered="37" nVehLeft="37" nVehSeen="57" meanSpeed="20.28" meanTimeLoss="2.66" meanOccupancy="13.68" maxOccupancy="15.00" meanMaxJamLengthInVehicles="0.00" meanMaxJamLengthInMeters="0.00" maxJamLengthInVehicles="0" maxJamLengthInMeters="0.00" jamLengthInVehiclesSum="0" jamLengthInMetersSum="0.00" meanHaltingDuration="0.00" maxHaltingDuration="0.00" haltingDurationSum="0.00" meanIntervalHaltingDuration="0.00" maxIntervalHaltingDuration="0.00" intervalHaltingDurationSum="0.00" startedHalts="0.00" meanVehicleNumber="19.85" maxVehicleNumber="22" />
   <interval begin="120.00" end="180.00" id="mainline_up_0_2" sampledSeconds="816.40" nVehEntered="21" nVehLeft="14" nVehSeen="30" meanSpeed="17.62" meanTimeLoss="3.01" meanOccupancy="8.53" maxOccupancy="10.68" meanMaxJamLengthInVehicles="0.00" meanMaxJamLengthInMeters="0.00" maxJamLengthInVehicles="0" maxJamLengthInMeters="0.00" jamLengthInVehiclesSum="0" jamLengthInMetersSum="0.00" meanHaltingDuration="0.00" maxHaltingDuration="0.00" haltingDurationSum="0.00" meanIntervalHaltingDuration="0.00" maxIntervalHaltingDuration="0.00" intervalHaltingDurationSum="0.00" startedHalts="0.00" meanVehicleNumber="13.88" maxVehicleNumber="18" />
   <interval begin="120.00" end="180.00" id="mainline_up_1_2" sampledSeconds="857.43" nVehEntered="35" nVehLeft="16" nVehSeen="39" meanSpeed="19.46" meanTimeLoss="2.77" meanOccupancy="8.99" maxOccupancy="14.57" meanMaxJamLengthInVehicles="0.00" meanMaxJamLengthInMeters="0.00" maxJamLengthInVehicles="0" maxJamLengthInMeters="0.00" jamLengthInVehiclesSum="0" jamLengthInMetersSum="0.00" meanHaltingDuration="0.00" maxHaltingDuration="0.00" haltingDurationSum="0.00" meanIntervalHaltingDuration="0.00" maxIntervalHaltingDuration="0.00" intervalHaltingDurationSum="0.00" startedHalts="0.00" meanVehicleNumber="14.63" maxVehicleNumber="24" />
   <interval begin="120.00" end="180.00" id="mainline_up_2_2" sampledSeconds="985.82" nVehEntered="35" nVehLeft="24" nVehSeen="48" meanSpeed="21.08" meanTimeLoss="2.10" meanOccupancy="10.35" maxOccupancy="15.08" meanMaxJamLengthInVehicles="0.00" meanMaxJamLengthInMeters="0.00" maxJamLengthInVehicles="0" maxJamLengthInMeters="0.00" jamLengthInVehiclesSum="0" jamLengthInMetersSum="0.00" meanHaltingDuration="0.00" maxHaltingDuration="0.00" haltingDurationSum="0.00" meanIntervalHaltingDuration="0.00" maxIntervalHaltingDuration="0.00" intervalHaltingDurationSum="0.00" startedHalts="0.00" meanVehicleNumber="16.83" maxVehicleNumber="24" />
    <interval begin="180.00" end="240.00" id="ramp_eval_0_0" nVehContrib="20" flow="1200.00" occupancy="20.89" speed="8.23" length="5.00" nVehEntered="21"/>
    <interval begin="180.00" end="240.00" id="ramp_eval_2_0" nVehContrib="16" flow="960.00" occupancy="15.09" speed="8.47" length="5.00" nVehEntered="15"/>
   <interval begin="180.00" end="240.00" id="mainline_up_0_0" sampledSeconds="805.15" nVehEntered="32" nVehLeft="33" nVehSeen="48" meanSpeed="17.23" meanTimeLoss="3.02" meanOccupancy="9.54" maxOccupancy="11.43" meanMaxJamLengthInVehicles="0.00" meanMaxJamLengthInMeters="0.00" maxJamLengthInVehicles="0" maxJamLengthInMeters="0.00" jamLengthInVehiclesSum="0" jamLengthInMetersSum="0.00" meanHaltingDuration="0.00" maxHaltingDuration="0.00" haltingDurationSum="0.00" meanIntervalHaltingDuration="0.00" maxIntervalHaltingDuration="0.00" intervalHaltingDurationSum="0.00" startedHalts="0.00" meanVehicleNumber="13.82" maxVehicleNumber="17" />
   <interval begin="180.00" end="240.00" id="mainline_up_1_0" sampledSeconds="1055.02" nVehEntered="50" nVehLeft="50" nVehSeen="66" meanSpeed="18.22" meanTimeLoss="2.63" meanOccupancy="12.45" maxOccupancy="15.71" meanMaxJamLengthInVehicles="0.00" meanMaxJamLengthInMeters="0.00" maxJamLengthInVehicles="0" maxJamLengthInMeters="0.00" jamLengthInVehiclesSum="0" jamLengthInMetersSum="0.00" meanHaltingDuration="0.00" maxHaltingDuration="0.00" haltingDurationSum="0.00" meanIntervalHaltingDuration="0.00" maxIntervalHaltingDuration="0.00" intervalHaltingDurationSum="0.00" startedHalts="0.00" meanVehicleNumber="18.05" maxVehicleNumber="22" />
   <interval begin="180.00" end="240.00" id="mainline_up_2_0" sampledSeconds="1159.61" nVehEntered="46" nVehLeft="45" nVehSeen="66" meanSpeed="19.92" meanTimeLoss="2.35" meanOccupancy="13.64" maxOccupancy="16.43" meanMaxJamLengthInVehicles="0.00" meanMaxJamLengthInMeters="0.00" maxJamLengthInVehicles="0" maxJamLengthInMeters="0.00" jamLengthInVehiclesSum="0" jamLengthInMetersSum="0.00" meanHaltingDuration="0.00" maxHaltingDuration="0.00" haltingDurationSum="0.00" meanIntervalHaltingDuration="0.00" maxIntervalHaltingDuration="0.00" intervalHaltingDurationSum="0.00" startedHalts="0.00" meanVehicleNumber="19.85" maxVehicleNumber="24" />
   <interval begin="180.00" end="240.00" id="mainline_up_0_1" sampledSeconds="666.41" nVehEntered="21" nVehLeft="20" nVehSeen="31" meanSpeed="17.92" meanTimeLoss="2.01" meanOccupancy="7.87" maxOccupancy="10.00" meanMaxJamLengthInVehicles="0.00" meanMaxJamLengthInMeters="0.00" maxJamLengthInVehicles="0" maxJamLengthInMeters="0.00" jamLengthInVehiclesSum="0" jamLengthInMetersSum="0.00" meanHaltingDuration="0.00" maxHaltingDuration="0.00" haltingDurationSum="0.00" meanIntervalHaltingDuration="0.00" maxIntervalHaltingDuration="0.00" intervalHaltingDurationSum="0.00" startedHalts="0.00" meanVehicleNumber="11.42" maxVehicleNumber="14" />
   <interval begin="180.00" end="240.00" id="mainline_up_1_1" sampledSeconds="972.93" nVehEntered="33" nVehLeft="31" nVehSeen="48" meanSpeed="19.65" meanTimeLoss="2.44" meanOccupancy="11.50" maxOccupancy="14.29" meanMaxJamLengthInVehicles="0.00" meanMaxJamLengthInMeters="0.00" maxJamLengthInVehicles="0" maxJamLengthInMeters="0.00" jamLengthInVehiclesSum="0" jamLengthInMetersSum="0.00" meanHaltingDuration="0.00" maxHaltingDuration="0.00" haltingDurationSum="0.00" meanIntervalHaltingDuration="0.00" maxIntervalHaltingDuration="0.00" intervalHaltingDurationSum="0.00" startedHalts="0.00" meanVehicleNumber="16.62" maxVehicleNumber="21" />
   <interval begin="180.00" end="240.00" id="mainline_up_2_1" sampledSeconds="1194.72" nVehEntered="40" nVehLeft="39" nVehSeen="60" meanSpeed="20.89" meanTimeLoss="2.17" meanOccupancy="14.14" maxOccupancy="16.00" meanMaxJamLengthInVehicles="0.00" meanMaxJamLengthInMeters="0.00" maxJamLengthInVehicles="0" maxJamLengthInMeters="0.00" jamLengthInVehiclesSum="0" jamLengthInMetersSum="0.00" meanHaltingDuration="0.00" maxHaltingDuration="0.00" haltingDurationSum="0.00" meanIntervalHaltingDuration="0.00" maxIntervalHaltingDuration="0.00" intervalHaltingDurationSum="0.00" startedHalts="0.00" meanVehicleNumber="20.53" maxVehicleNumber="23" />
   <interval begin="180.00" end="240.00" id="mainline_up_0_2" sampledSeconds="1004.75" nVehEntered="26" nVehLeft="27" nVehSeen="42" meanSpeed="14.37" meanTimeLoss="6.38" meanOccupancy="10.39" maxOccupancy="12.56" meanMaxJamLengthInVehicles="1.17" meanMaxJamLengthInMeters="8.28" maxJamLengthInVehicles="6" maxJamLengthInMeters="44.78" jamLengthInVehiclesSum="72" jamLengthInMetersSum="501.83" meanHaltingDuration="5.27" maxHaltingDuration="10.00" haltingDurationSum="79.00" meanIntervalHaltingDuration="5.27" maxIntervalHaltingDuration="10.00" intervalHaltingDurationSum="79.00" startedHalts="18.00" meanVehicleNumber="17.00" maxVehicleNumber="21" />
   <interval begin="180.00" end="240.00" id="mainline_up_1_2" sampledSeconds="1149.79" nVehEntered="41" nVehLeft="44" nVehSeen="64" meanSpeed="18.53" meanTimeLoss="2.73" meanOccupancy="11.92" maxOccupancy="14.45" meanMaxJamLengthInVehicles="0.00" meanMaxJamLengthInMeters="0.00" maxJamLengthInVehicles="0" maxJamLengthInMeters="0.00" jamLengthInVehiclesSum="0" jamLengthInMetersSum="0.00" meanHaltingDuration="0.00" maxHaltingDuration="0.00" haltingDurationSum="0.00" meanIntervalHaltingDuration="0.00" maxIntervalHaltingDuration="0.00" intervalHaltingDurationSum="0.00" startedHalts="0.00" meanVehicleNumber="19.65" maxVehicleNumber="23" />
   <interval begin="180.00" end="240.00" id="mainline_up_2_2" sampledSeconds="1388.01" nVehEntered="38" nVehLeft="39" nVehSeen="62" meanSpeed="20.12" meanTimeLoss="3.26" meanOccupancy="14.42" maxOccupancy="16.33" meanMaxJamLengthInVehicles="0.00" meanMaxJamLengthInMeters="0.00" maxJamLengthInVehicles="0" maxJamLengthInMeters="0.00" jamLengthInVehiclesSum="0" jamLengthInMetersSum="0.00" meanHaltingDuration="0.00" maxHaltingDuration="0.00" haltingDurationSum="0.00" meanIntervalHaltingDuration="0.00" maxIntervalHaltingDuration="0.00" intervalHaltingDurationSum="0.00" startedHalts="0.00" meanVehicleNumber="23.68" maxVehicleNumber="27" />
    <interval begin="240.00" end="300.00" id="ramp_eval_0_0" nVehContrib="18" flow="1080.00" occupancy="16.37" speed="9.03" length="5.00" nVehEntered="18"/>
    <interval begin="240.00" end="300.00" id="ramp_eval_2_0" nVehContrib="20" flow="1200.00" occupancy="22.70" speed="7.38" length="5.00" nVehEntered="20"/>
   <interval begin="240.00" end="300.00" id="mainline_up_0_0" sampledSeconds="881.59" nVehEntered="29" nVehLeft="31" nVehSeen="44" meanSpeed="17.42" meanTimeLoss="3.18" meanOccupancy="10.44" maxOccupancy="12.14" meanMaxJamLengthInVehicles="0.00" meanMaxJamLengthInMeters="0.00" maxJamLengthInVehicles="0" maxJamLengthInMeters="0.00" jamLengthInVehiclesSum="0" jamLengthInMetersSum="0.00" meanHaltingDuration="0.00" maxHaltingDuration="0.00" haltingDurationSum="0.00" meanIntervalHaltingDuration="0.00" maxIntervalHaltingDuration="0.00" intervalHaltingDurationSum="0.00" startedHalts="0.00" meanVehicleNumber="15.05" maxVehicleNumber="18" />
   <interval begin="240.00" end="300.00" id="mainline_up_1_0" sampledSeconds="1023.79" nVehEntered="41" nVehLeft="42" nVehSeen="57" meanSpeed="18.24" meanTimeLoss="3.16" meanOccupancy="12.11" maxOccupancy="15.71" meanMaxJamLengthInVehicles="0.00" meanMaxJamLengthInMeters="0.00" maxJamLengthInVehicles="0" maxJamLengthInMeters="0.00" jamLengthInVehiclesSum="0" jamLengthInMetersSum="0.00" meanHaltingDuration="0.00" maxHaltingDuration="0.00" haltingDurationSum="0.00" meanIntervalHaltingDuration="0.00" maxIntervalHaltingDuration="0.00" intervalHaltingDurationSum="0.00" startedHalts="0.00" meanVehicleNumber="17.45" maxVehicleNumber="23" />
   <interval begin="240.00" end="300.00" id="mainline_up_2_0" sampledSeconds="1097.91" nVehEntered="36" nVehLeft="40" nVehSeen="57" meanSpeed="19.49" meanTimeLoss="2.48" meanOccupancy="12.87" maxOccupancy="15.71" meanMaxJamLengthInVehicles="0.00" meanMaxJamLengthInMeters="0.00" maxJamLengthInVehicles="0" maxJamLengthInMeters="0.00" jamLengthInVehiclesSum="0" jamLengthInMetersSum="0.00" meanHaltingDuration="0.00" maxHaltingDuration="0.00" haltingDurationSum="0.00" meanIntervalHaltingDuration="0.00" maxIntervalHaltingDuration="0.00" intervalHaltingDurationSum="0.00" startedHalts="0.00" meanVehicleNumber="18.80" maxVehicleNumber="23" />
   <interval begin="240.00" end="300.00" id="mainline_up_0_1" sampledSeconds="762.53" nVehEntered="24" nVehLeft="18" nVehSeen="35" meanSpeed="17.08" meanTimeLoss="3.09" meanOccupancy="9.05" maxOccupancy="12.14" meanMaxJamLengthInVehicles="0.00" meanMaxJamLengthInMeters="0.00" maxJamLengthInVehicles="0" maxJamLengthInMeters="0.00" jamLengthInVehiclesSum="0" jamLengthInMetersSum="0.00" meanHaltingDuration="0.00" maxHaltingDuration="0.00" haltingDurationSum="0.00" meanIntervalHaltingDuration="0.00" maxIntervalHaltingDuration="0.00" intervalHaltingDurationSum="0.00" startedHalts="0.00" meanVehicleNumber="12.97" maxVehicleNumber="18" />
   <interval begin="240.00" end="300.00" id="mainline_up_1_1" sampledSeconds="1005.66" nVehEntered="34" nVehLeft="31" nVehSeen="51" meanSpeed="18.71" meanTimeLoss="2.91" meanOccupancy="11.89" maxOccupancy="15.00" meanMaxJamLengthInVehicles="0.00" meanMaxJamLengthInMeters="0.00" maxJamLengthInVehicles="0" maxJamLengthInMeters="0.00" jamLengthInVehiclesSum="0" jamLengthInMetersSum="0.00" meanHaltingDuration="0.00" maxHaltingDuration="0.00" haltingDurationSum="0.00" meanIntervalHaltingDuration="0.00" maxIntervalHaltingDuration="0.00" intervalHaltingDurationSum="0.00" startedHalts="0.00" meanVehicleNumber="17.10" maxVehicleNumber="21" />
   <interval begin="240.00" end="300.00" id="mainline_up_2_1" sampledSeconds="1196.05" nVehEntered="40" nVehLeft="39" nVehSeen="61" meanSpeed="20.35" meanTimeLoss="2.36" meanOccupancy="14.18" maxOccupancy="16.43" meanMaxJamLengthInVehicles="0.00" meanMaxJamLengthInMeters="0.00" maxJamLengthInVehicles="0" maxJamLengthInMeters="0.00" jamLengthInVehiclesSum="0" jamLengthInMetersSum="0.00" meanHaltingDuration="0.00" maxHaltingDuration="0.00" haltingDurationSum="0.00" meanIntervalHaltingDuration="0.00" maxIntervalHaltingDuration="0.00" intervalHaltingDurationSum="0.00" startedHalts="0.00" meanVehicleNumber="20.45" maxVehicleNumber="24" />