<?xml version="1.0" encoding="UTF-8"?>

<!-- generated on 02/11/19 19:28:56 by Eclipse SUMO Version 1.0.1
<configuration xmlns:xsi="http://www.w3.org/2001/XMLSchema-instance" xsi:noNamespaceSchemaLocation="http://sumo.dlr.de/xsd/sumoConfiguration.xsd">

    <input>
        <net-file value="./project/ramp.net.xml"/>
        <route-files value="./project/ramp.rou.xml"/>
        <additional-files value="./project/ramp.add.xml"/>
    </input>

    <time>
        <begin value="0"/>
    </time>

    <report>
        <verbose value="true"/>
        <no-step-log value="true"/>
    </report>

    <traci_server>
        <remote-port value="50916"/>
    </traci_server>

    <random_number>
        <seed value="792380830"/>
    </random_number>

    <gui_only>
        <quit-on-end value="true"/>
        <start value="true"/>
    </gui_only>

</configuration>
-->

<detector xmlns:xsi="http://www.w3.org/2001/XMLSchema-instance" xsi:noNamespaceSchemaLocation="http://sumo.dlr.de/xsd/det_e1_file.xsd">
    <interval begin="0.00" end="60.00" id="ramp_eval_0_0" nVehContrib="2" flow="120.00" occupancy="1.76" speed="10.53" length="5.00" nVehEntered="3"/>
    <interval begin="0.00" end="60.00" id="ramp_eval_2_0" nVehContrib="0" flow="0.00" occupancy="0.00" speed="-1.00" length="-1.00" nVehEntered="0"/>
   <interval begin="0.00" end="60.00" id="ramp_eval_1_0" sampledSeconds="169.57" nVehEntered="8" nVehLeft="0" nVehSeen="8" meanSpeed="9.69" meanTimeLoss="1.83" meanOccupancy="1.21" maxOccupancy="3.39" meanMaxJamLengthInVehicles="0.00" meanMaxJamLengthInMeters="0.00" maxJamLengthInVehicles="0" maxJamLengthInMeters="0.00" jamLengthInVehiclesSum="0" jamLengthInMetersSum="0.00" meanHaltingDuration="0.00" maxHaltingDuration="0.00" haltingDurationSum="0.00" meanIntervalHaltingDuration="0.00" maxIntervalHaltingDuration="0.00" intervalHaltingDurationSum="0.00" startedHalts="0.00" meanVehicleNumber="2.85" maxVehicleNumber="8" />
    <interval begin="60.00" end="120.00" id="ramp_eval_0_0" nVehContrib="14" flow="840.00" occupancy="12.78" speed="9.05" length="5.00" nVehEntered="13"/>
    <interval begin="60.00" end="120.00" id="ramp_eval_2_0" nVehContrib="1" flow="60.00" occupancy="0.78" speed="10.67" length="5.00" nVehEntered="1"/>
   <interval begin="60.00" end="120.00" id="ramp_eval_1_0" sampledSeconds="917.23" nVehEntered="14" nVehLeft="0" nVehSeen="22" meanSpeed="9.28" meanTimeLoss="4.81" meanOccupancy="6.50" maxOccupancy="9.32" meanMaxJamLengthInVehicles="0.00" meanMaxJamLengthInMeters="0.00" maxJamLengthInVehicles="0" maxJamLengthInMeters="0.00" jamLengthInVehiclesSum="0" jamLengthInMetersSum="0.00" meanHaltingDuration="0.00" maxHaltingDuration="0.00" haltingDurationSum="0.00" meanIntervalHaltingDuration="0.00" maxIntervalHaltingDuration="0.00" intervalHaltingDurationSum="0.00" startedHalts="0.00" meanVehicleNumber="15.37" maxVehicleNumber="22" />
    <interval begin="120.00" end="180.00" id="ramp_eval_0_0" nVehContrib="11" flow="660.00" occupancy="9.82" speed="9.39" length="5.00" nVehEntered="11"/>
    <interval begin="120.00" end="180.00" id="ramp_eval_2_0" nVehContrib="6" flow="360.00" occupancy="5.50" speed="9.11" length="5.00" nVehEntered="6"/>
   <interval begin="120.00" end="180.00" id="ramp_eval_1_0" sampledSeconds="1597.85" nVehEntered="14" nVehLeft="6" nVehSeen="36" meanSpeed="9.14" meanTimeLoss="5.80" meanOccupancy="11.28" maxOccupancy="13.14" meanMaxJamLengthInVehicles="0.00" meanMaxJamLengthInMeters="0.00" maxJamLengthInVehicles="0" maxJamLengthInMeters="0.00" jamLengthInVehiclesSum="0" jamLengthInMetersSum="0.00" meanHaltingDuration="0.00" maxHaltingDuration="0.00" haltingDurationSum="0.00" meanIntervalHaltingDuration="0.00" maxIntervalHaltingDuration="0.00" intervalHaltingDurationSum="0.00" startedHalts="0.00" meanVehicleNumber="26.80" maxVehicleNumber="31" />
    <interval begin="180.00" end="240.00" id="ramp_eval_0_0" nVehContrib="16" flow="960.00" occupancy="14.44" speed="9.27" length="5.00" nVehEntered="16"/>
    <interval begin="180.00" end="240.00" id="ramp_eval_2_0" nVehContrib="17" flow="1020.00" occupancy="15.78" speed="9.01" length="5.00" nVehEntered="17"/>
   <interval begin="180.00" end="240.00" id="ramp_eval_1_0" sampledSeconds="1794.95" nVehEntered="12" nVehLeft="12" nVehSeen="42" meanSpeed="9.18" meanTimeLoss="5.71" meanOccupancy="12.63" maxOccupancy="13.98" meanMaxJamLengthInVehicles="0.00" meanMaxJamLengthInMeters="0.00" maxJamLengthInVehicles="0" maxJamLengthInMeters="0.00" jamLengthInVehiclesSum="0" jamLengthInMetersSum="0.00" meanHaltingDuration="0.00" maxHaltingDuration="0.00" haltingDurationSum="0.00" meanIntervalHaltingDuration="0.00" maxIntervalHaltingDuration="0.00" intervalHaltingDurationSum="0.00" startedHalts="0.00" meanVehicleNumber="30.13" maxVehicleNumber="33" />
    <interval begin="240.00" end="300.00" id="ramp_eval_0_0" nVehContrib="12" flow="720.00" occupancy="10.45" speed="9.66" length="5.00" nVehEntered="12"/>
    <interval begin="240.00" end="300.00" id="ramp_eval_2_0" nVehContrib="13" flow="780.00" occupancy="12.18" speed="9.21" length="5.00" nVehEntered="14"/>
   <interval begin="240.00" end="300.00" id="ramp_eval_1_0" sampledSeconds="1726.18" nVehEntered="14" nVehLeft="14" nVehSeen="44" meanSpeed="9.29" meanTimeLoss="5.17" meanOccupancy="12.13" maxOccupancy="13.56" meanMaxJamLengthInVehicles="0.00" meanMaxJamLengthInMeters="0.00" maxJamLengthInVehicles="0" maxJamLengthInMeters="0.00" jamLengthInVehiclesSum="0" jamLengthInMetersSum="0.00" meanHaltingDuration="0.00" maxHaltingDuration="0.00" haltingDurationSum="0.00" meanIntervalHaltingDuration="0.00" maxIntervalHaltingDuration="0.00" intervalHaltingDurationSum="0.00" startedHalts="0.00" meanVehicleNumber="29.02" maxVehicleNumber="32" />
    <interval begin="300.00" end="360.00" id="ramp_eval_0_0" nVehContrib="13" flow="780.00" occupancy="12.60" speed="8.67" length="5.00" nVehEntered="13"/>
    <interval begin="300.00" end="360.00" id="ramp_eval_2_0" nVehContrib="12" flow="720.00" occupancy="10.43" speed="9.30" length="5.00" nVehEntered="11"/>
   <interval begin="300.00" end="360.00" id="ramp_eval_1_0" sampledSeconds="1619.46" nVehEntered="13" nVehLeft="17" nVehSeen="43" meanSpeed="8.91" meanTimeLoss="5.91" meanOccupancy="11.36" maxOccupancy="12.71" meanMaxJamLengthInVehicles="0.00" meanMaxJamLengthInMeters="0.00" maxJamLengthInVehicles="0" maxJamLengthInMeters="0.00" jamLengthInVehiclesSum="0" jamLengthInMetersSum="0.00" meanHaltingDuration="0.00" maxHaltingDuration="0.00" haltingDurationSum="0.00" meanIntervalHaltingDuration="0.00" maxIntervalHaltingDuration="0.00" intervalHaltingDurationSum="0.00" startedHalts="0.00" meanVehicleNumber="27.23" maxVehicleNumber="30" />
    <interval begin="360.00" end="420.00" id="ramp_eval_0_0" nVehContrib="15" flow="900.00" occupancy="13.46" speed="9.31" length="5.00" nVehEntered="15"/>
    <interval begin="360.00" end="420.00" id="ramp_eval_2_0" nVehContrib="13" flow="780.00" occupancy="12.33" speed="8.79" length="5.00" nVehEntered="13"/>
   <interval begin="360.00" end="420.00" id="ramp_eval_1_0" sampledSeconds="1770.81" nVehEntered="14" nVehLeft="10" nVehSeen="40" meanSpeed="8.94" meanTimeLoss="6.71" meanOccupancy="12.46" maxOccupancy="13.63" meanMaxJamLengthInVehicles="0.00" meanMaxJamLengthInMeters="0.00" maxJamLengthInVehicles="0" maxJamLengthInMeters="0.00" jamLengthInVehiclesSum="0" jamLengthInMetersSum="0.00" meanHaltingDuration="0.00" maxHaltingDuration="0.00" haltingDurationSum="0.00" meanIntervalHaltingDuration="0.00" maxIntervalHaltingDuration="0.00" intervalHaltingDurationSum="0.00" startedHalts="0.00" meanVehicleNumber="29.72" maxVehicleNumber="33" />
    <interval begin="420.00" end="480.00" id="ramp_eval_0_0" nVehContrib="13" flow="780.00" occupancy="10.50" speed="10.36" length="5.00" nVehEntered="13"/>
    <interval begin="420.00" end="480.00" id="ramp_eval_2_0" nVehContrib="16" flow="960.00" occupancy="17.62" speed="7.80" length="5.00" nVehEntered="17"/>
   <interval begin="420.00" end="480.00" id="ramp_eval_1_0" sampledSeconds="1937.14" nVehEntered="12" nVehLeft="13" nVehSeen="42" meanSpeed="9.32" meanTimeLoss="6.85" meanOccupancy="13.63" maxOccupancy="15.25" meanMaxJamLengthInVehicles="0.00" meanMaxJamLengthInMeters="0.00" maxJamLengthInVehicles="0" maxJamLengthInMeters="0.00" jamLengthInVehiclesSum="0" jamLengthInMetersSum="0.00" meanHaltingDuration="0.00" maxHaltingDuration="0.00" haltingDurationSum="0.00" meanIntervalHaltingDuration="0.00" maxIntervalHaltingDuration="0.00" intervalHaltingDurationSum="0.00" startedHalts="0.00" meanVehicleNumber="32.50" maxVehicleNumber="37" />
    <interval begin="480.00" end="540.00" id="ramp_eval_0_0" nVehContrib="14" flow="840.00" occupancy="11.64" speed="10.05" length="5.00" nVehEntered="14"/>
    <interval begin="480.00" end="540.00" id="ramp_eval_2_0" nVehContrib="15" flow="900.00" occupancy="12.38" speed="9.81" length="5.00" nVehEntered="14"/>
   <interval begin="480.00" end="540.00" id="ramp_eval_1_0" sampledSeconds="1623.35" nVehEntered="15" nVehLeft="19" nVehSeen="44" meanSpeed="9.97" meanTimeLoss="4.25" meanOccupancy="11.39" maxOccupancy="12.57" meanMaxJamLengthInVehicles="0.00" meanMaxJamLengthInMeters="0.00" maxJamLengthInVehicles="0" maxJamLengthInMeters="0.00" jamLengthInVehiclesSum="0" jamLengthInMetersSum="0.00" meanHaltingDuration="0.00" maxHaltingDuration="0.00" haltingDurationSum="0.00" meanIntervalHaltingDuration="0.00" maxIntervalHaltingDuration="0.00" intervalHaltingDurationSum="0.00" startedHalts="0.00" meanVehicleNumber="27.32" maxVehicleNumber="31" />
    <interval begin="540.00" end="600.00" id="ramp_eval_0_0" nVehContrib="13" flow="780.00" occupancy="12.22" speed="9.06" length="5.00" nVehEntered="13"/>
    <interval begin="540.00" end="600.00" id="ramp_eval_2_0" nVehContrib="10" flow="600.00" occupancy="8.28" speed="10.07" length="5.00" nVehEntered="10"/>
   <interval begin="540.00" end="600.00" id="ramp_eval_1_0" sampledSeconds="1543.00" nVehEntered="13" nVehLeft="10" nVehSeen="38" meanSpeed="9.44" meanTimeLoss="6.12" meanOccupancy="10.87" maxOccupancy="11.86" meanMaxJamLengthInVehicles="0.00" meanMaxJamLengthInMeters="0.00" maxJamLengthInVehicles="0" maxJamLengthInMeters="0.00" jamLengthInVehiclesSum="0" jamLengthInMetersSum="0.00" meanHaltingDuration="0.00" maxHaltingDuration="0.00" haltingDurationSum="0.00" meanIntervalHaltingDuration="0.00" maxIntervalHaltingDuration="0.00" intervalHaltingDurationSum="0.00" startedHalts="0.00" meanVehicleNumber="25.88" maxVehicleNumber="28" />
    <interval begin="600.00" end="660.00" id="ramp_eval_0_0" nVehContrib="12" flow="720.00" occupancy="9.74" speed="10.33" length="5.00" nVehEntered="12"/>
    <interval begin="600.00" end="660.00" id="ramp_eval_2_0" nVehContrib="9" flow="540.00" occupancy="8.19" speed="9.16" length="5.00" nVehEntered="9"/>
   <interval begin="600.00" end="660.00" id="ramp_eval_1_0" sampledSeconds="1631.10" nVehEntered="13" nVehLeft="11" nVehSeen="41" meanSpeed="9.01" meanTimeLoss="7.55" meanOccupancy="11.47" maxOccupancy="12.71" meanMaxJamLengthInVehicles="0.00" meanMaxJamLengthInMeters="0.00" maxJamLengthInVehicles="0" maxJamLengthInMeters="0.00" jamLengthInVehiclesSum="0" jamLengthInMetersSum="0.00" meanHaltingDuration="0.00" maxHaltingDuration="0.00" haltingDurationSum="0.00" meanIntervalHaltingDuration="0.00" maxIntervalHaltingDuration="0.00" intervalHaltingDurationSum="0.00" startedHalts="0.00" meanVehicleNumber="27.45" maxVehicleNumber="30" />
    <interval begin="660.00" end="720.00" id="ramp_eval_0_0" nVehContrib="15" flow="900.00" occupancy="12.89" speed="9.73" length="5.00" nVehEntered="15"/>
    <interval begin="660.00" end="720.00" id="ramp_eval_2_0" nVehContrib="21" flow="1260.00" occupancy="21.24" speed="8.36" length="5.00" nVehEntered="21"/>
   <interval begin="660.00" end="720.00" id="ramp_eval_1_0" sampledSeconds="1884.83" nVehEntered="14" nVehLeft="17" nVehSeen="44" meanSpeed="9.38" meanTimeLoss="6.86" meanOccupancy="13.24" maxOccupancy="15.25" meanMaxJamLengthInVehicles="0.00" meanMaxJamLengthInMeters="0.00" maxJamLengthInVehicles="0" maxJamLengthInMeters="0.00" jamLengthInVehiclesSum="0" jamLengthInMetersSum="0.00" meanHaltingDuration="0.00" maxHaltingDuration="0.00" haltingDurationSum="0.00" meanIntervalHaltingDuration="0.00" maxIntervalHaltingDuration="0.00" intervalHaltingDurationSum="0.00" startedHalts="0.00" meanVehicleNumber="31.60" maxVehicleNumber="36" />
    <interval begin="720.00" end="780.00" id="ramp_eval_0_0" nVehContrib="13" flow="780.00" occupancy="9.94" speed="10.93" length="5.00" nVehEntered="13"/>
    <interval begin="720.00" end="780.00" id="ramp_eval_2_0" nVehContrib="12" flow="720.00" occupancy="10.47" speed="9.57" length="5.00" nVehEntered="12"/>
   <interval begin="720.00" end="780.00" id="ramp_eval_1_0" sampledSeconds="1638.40" nVehEntered="12" nVehLeft="12" nVehSeen="39" meanSpeed="10.01" meanTimeLoss="5.09" meanOccupancy="11.51" maxOccupancy="12.71" meanMaxJamLengthInVehicles="0.02" meanMaxJamLengthInMeters="0.08" maxJamLengthInVehicles="1" maxJamLengthInMeters="5.00" jamLengthInVehiclesSum="1" jamLengthInMetersSum="5.00" meanHaltingDuration="1.25" maxHaltingDuration="2.00" haltingDurationSum="5.00" meanIntervalHaltingDuration="1.25" maxIntervalHaltingDuration="2.00" intervalHaltingDurationSum="5.00" startedHalts="4.00" meanVehicleNumber="27.50" maxVehicleNumber="31" />
    <interval begin="780.00" end="840.00" id="ramp_eval_0_0" nVehContrib="13" flow="780.00" occupancy="11.31" speed="9.62" length="5.00" nVehEntered="13"/>
    <interval begin="780.00" end="840.00" id="ramp_eval_2_0" nVehContrib="14" flow="840.00" occupancy="11.18" speed="10.45" length="5.00" nVehEntered="14"/>
   <interval begin="780.00" end="840.00" id="ramp_eval_1_0" sampledSeconds="1518.19" nVehEntered="15" nVehLeft="16" nVehSeen="42" meanSpeed="9.98" meanTimeLoss="3.85" meanOccupancy="10.65" maxOccupancy="11.71" meanMaxJamLengthInVehicles="0.00" meanMaxJamLengthInMeters="0.00" maxJamLengthInVehicles="0" maxJamLengthInMeters="0.00" jamLengthInVehiclesSum="0" jamLengthInMetersSum="0.00" meanHaltingDuration="0.00" maxHaltingDuration="0.00" haltingDurationSum="0.00" meanIntervalHaltingDuration="0.00" maxIntervalHaltingDuration="0.00" intervalHaltingDurationSum="0.00" startedHalts="0.00" meanVehicleNumber="25.57" maxVehicleNumber="28" />
    <interval begin="840.00" end="900.00" id="ramp_eval_0_0" nVehContrib="14" flow="840.00" occupancy="12.09" speed="9.69" length="5.00" nVehEntered="14"/>
    <interval begin="840.00" end="900.00" id="ramp_eval_2_0" nVehContrib="10" flow="600.00" occupancy="8.74" speed="9.56" length="5.00" nVehEntered="10"/>
   <interval begin="840.00" end="900.00" id="ramp_eval_1_0" sampledSeconds="1591.43" nVehEntered="12" nVehLeft="9" nVehSeen="38" meanSpeed="9.47" meanTimeLoss="5.58" meanOccupancy="11.20" maxOccupancy="12.71" meanMaxJamLengthInVehicles="0.00" meanMaxJamLengthInMeters="0.00" maxJamLengthInVehicles="0" maxJamLengthInMeters="0.00" jamLengthInVehiclesSum="0" jamLengthInMetersSum="0.00" meanHaltingDuration="0.00" maxHaltingDuration="0.00" haltingDurationSum="0.00" meanIntervalHaltingDuration="0.00" maxIntervalHaltingDuration="0.00" intervalHaltingDurationSum="0.00" startedHalts="0.00" meanVehicleNumber="26.70" maxVehicleNumber="30" />
    <interval begin="900.00" end="960.00" id="ramp_eval_0_0" nVehContrib="11" flow="660.00" occupancy="8.56" speed="10.81" length="5.00" nVehEntered="11"/>
    <interval begin="900.00" end="960.00" id="ramp_eval_2_0" nVehContrib="14" flow="840.00" occupancy="13.42" speed="9.23" length="5.00" nVehEntered="15"/>
   <interval begin="900.00" end="960.00" id="ramp_eval_1_0" sampledSeconds="1666.74" nVehEntered="14" nVehLeft="17" nVehSeen="43" meanSpeed="9.59" meanTimeLoss="5.71" meanOccupancy="11.71" maxOccupancy="13.14" meanMaxJamLengthInVehicles="0.00" meanMaxJamLengthInMeters="0.00" maxJamLengthInVehicles="0" maxJamLengthInMeters="0.00" jamLengthInVehiclesSum="0" jamLengthInMetersSum="0.00" meanHaltingDuration="0.00" maxHaltingDuration="0.00" haltingDurationSum="0.00" meanIntervalHaltingDuration="0.00" maxIntervalHaltingDuration="0.00" intervalHaltingDurationSum="0.00" startedHalts="0.00" meanVehicleNumber="28.07" maxVehicleNumber="31" />
    <interval begin="960.00" end="1020.00" id="ramp_eval_0_0" nVehContrib="16" flow="960.00" occupancy="14.17" speed="9.69" length="5.00" nVehEntered="16"/>
    <interval begin="960.00" end="1020.00" id="ramp_eval_2_0" nVehContrib="16" flow="960.00" occupancy="13.97" speed="9.11" length="5.00" nVehEntered="15"/>
   <interval begin="960.00" end="1020.00" id="ramp_eval_1_0" sampledSeconds="1661.70" nVehEntered="13" nVehLeft="15" nVehSeen="39" meanSpeed="9.38" meanTimeLoss="7.44" meanOccupancy="11.67" maxOccupancy="13.14" meanMaxJamLengthInVehicles="0.00" meanMaxJamLengthInMeters="0.00" maxJamLengthInVehicles="0" maxJamLengthInMeters="0.00" jamLengthInVehiclesSum="0" jamLengthInMetersSum="0.00" meanHaltingDuration="0.00" maxHaltingDuration="0.00" haltingDurationSum="0.00" meanIntervalHaltingDuration="0.00" maxIntervalHaltingDuration="0.00" intervalHaltingDurationSum="0.00" startedHalts="0.00" meanVehicleNumber="27.87" maxVehicleNumber="32" />
    <interval begin="1020.00" end="1080.00" id="ramp_eval_0_0" nVehContrib="11" flow="660.00" occupancy="9.38" speed="9.88" length="5.00" nVehEntered="11"/>
    <interval begin="1020.00" end="1080.00" id="ramp_eval_2_0" nVehContrib="5" flow="300.00" occupancy="4.71" speed="8.87" length="5.00" nVehEntered="5"/>
   <interval begin="1020.00" end="1080.00" id="ramp_eval_1_0" sampledSeconds="1680.39" nVehEntered="14" nVehLeft="5" nVehSeen="38" meanSpeed="8.90" meanTimeLoss="8.79" meanOccupancy="11.86" maxOccupancy="13.98" meanMaxJamLengthInVehicles="0.00" meanMaxJamLengthInMeters="0.00" maxJamLengthInVehicles="0" maxJamLengthInMeters="0.00" jamLengthInVehiclesSum="0" jamLengthInMetersSum="0.00" meanHaltingDuration="0.00" maxHaltingDuration="0.00" haltingDurationSum="0.00" meanIntervalHaltingDuration="0.00" maxIntervalHaltingDuration="0.00" intervalHaltingDurationSum="0.00" startedHalts="0.00" meanVehicleNumber="28.13" maxVehicleNumber="33" />
    <interval begin="1080.00" end="1140.00" id="ramp_eval_0_0" nVehContrib="14" flow="840.00" occupancy="12.57" speed="9.32" length="5.00" nVehEntered="14"/>
    <interval begin="1080.00" end="1140.00" id="ramp_eval_2_0" nVehContrib="19" flow="1140.00" occupancy="19.27" speed="8.30" length="5.00" nVehEntered="19"/>
   <interval begin="1080.00" end="1140.00" id="ramp_eval_1_0" sampledSeconds="1752.85" nVehEntered="12" nVehLeft="20" nVehSeen="45" meanSpeed="9.16" meanTimeLoss="6.73" meanOccupancy="12.30" maxOccupancy="14.83" meanMaxJamLengthInVehicles="0.00" meanMaxJamLengthInMeters="0.00" maxJamLengthInVehicles="0" maxJamLengthInMeters="0.00" jamLengthInVehiclesSum="0" jamLengthInMetersSum="0.00" meanHaltingDuration="0.00" maxHaltingDuration="0.00" haltingDurationSum="0.00" meanIntervalHaltingDuration="0.00" maxIntervalHaltingDuration="0.00" intervalHaltingDurationSum="0.00" startedHalts="0.00" meanVehicleNumber="29.50" maxVehicleNumber="36" />
    <interval begin="1140.00" end="1200.00" id="ramp_eval_0_0" nVehContrib="14" flow="840.00" occupancy="12.02" speed="9.73" length="5.00" nVehEntered="14"/>
    <interval begin="1140.00" end="1200.00" id="ramp_eval_2_0" nVehContrib="13" flow="780.00" occupancy="12.26" speed="8.84" length="5.00" nVehEntered="13"/>
   <interval begin="1140.00" end="1200.00" id="ramp_eval_1_0" sampledSeconds="1737.20" nVehEntered="14" nVehLeft="9" nVehSeen="39" meanSpeed="9.39" meanTimeLoss="6.02" meanOccupancy="12.24" maxOccupancy="13.16" meanMaxJamLengthInVehicles="0.00" meanMaxJamLengthInMeters="0.00" maxJamLengthInVehicles="0" maxJamLengthInMeters="0.00" jamLengthInVehiclesSum="0" jamLengthInMetersSum="0.00" meanHaltingDuration="0.00" maxHaltingDuration="0.00" haltingDurationSum="0.00" meanIntervalHaltingDuration="0.00" maxIntervalHaltingDuration="0.00" intervalHaltingDurationSum="0.00" startedHalts="0.00" meanVehicleNumber="29.08" maxVehicleNumber="32" />
    <interval begin="1200.00" end="1260.00" id="ramp_eval_0_0" nVehContrib="14" flow="840.00" occupancy="11.70" speed="10.04" length="5.00" nVehEntered="14"/>
    <interval begin="1200.00" end="1260.00" id="ramp_eval_2_0" nVehContrib="15" flow="900.00" occupancy="13.21" speed="9.47" length="5.00" nVehEntered="15"/>
   <interval begin="1200.00" end="1260.00" id="ramp_eval_1_0" sampledSeconds="1678.15" nVehEntered="13" nVehLeft="15" nVehSeen="43" meanSpeed="9.70" meanTimeLoss="4.51" meanOccupancy="11.79" maxOccupancy="13.14" meanMaxJamLengthInVehicles="0.00" meanMaxJamLengthInMeters="0.00" maxJamLengthInVehicles="0" maxJamLengthInMeters="0.00" jamLengthInVehiclesSum="0" jamLengthInMetersSum="0.00" meanHaltingDuration="0.00" maxHaltingDuration="0.00" haltingDurationSum="0.00" meanIntervalHaltingDuration="0.00" maxIntervalHaltingDuration="0.00" intervalHaltingDurationSum="0.00" startedHalts="0.00" meanVehicleNumber="28.20" maxVehicleNumber="31" />
    <interval begin="1260.00" end="1320.00" id="ramp_eval_0_0" nVehContrib="10" flow="600.00" occupancy="9.02" speed="9.29" length="5.00" nVehEntered="10"/>
    <interval begin="1260.00" end="1320.00" id="ramp_eval_2_0" nVehContrib="13" flow="780.00" occupancy="11.85" speed="9.16" length="5.00" nVehEntered="13"/>
   <interval begin="1260.00" end="1320.00" id="ramp_eval_1_0" sampledSeconds="1670.11" nVehEntered="15" nVehLeft="11" nVehSeen="43" meanSpeed="9.31" meanTimeLoss="5.61" meanOccupancy="11.76" maxOccupancy="13.56" meanMaxJamLengthInVehicles="0.00" meanMaxJamLengthInMeters="0.00" maxJamLengthInVehicles="0" maxJamLengthInMeters="0.00" jamLengthInVehiclesSum="0" jamLengthInMetersSum="0.00" meanHaltingDuration="0.00" maxHaltingDuration="0.00" haltingDurationSum="0.00" meanIntervalHaltingDuration="0.00" maxIntervalHaltingDuration="0.00" intervalHaltingDurationSum="0.00" startedHalts="0.00" meanVehicleNumber="28.03" maxVehicleNumber="32" />
    <interval begin="1320.00" end="1380.00" id="ramp_eval_0_0" nVehContrib="16" flow="960.00" occupancy="13.27" speed="10.17" length="5.00" nVehEntered="16"/>
    <interval begin="1320.00" end="1380.00" id="ramp_eval_2_0" nVehContrib="11" flow="660.00" occupancy="9.64" speed="9.59" length="5.00" nVehEntered="11"/>
   <interval begin="1320.00" end="1380.00" id="ramp_eval_1_0" sampledSeconds="1622.51" nVehEntered="12" nVehLeft="15" nVehSeen="44" meanSpeed="9.59" meanTimeLoss="4.66" meanOccupancy="11.40" maxOccupancy="13.56" meanMaxJamLengthInVehicles="0.00" meanMaxJamLengthInMeters="0.00" maxJamLengthInVehicles="0" maxJamLengthInMeters="0.00" jamLengthInVehiclesSum="0" jamLengthInMetersSum="0.00" meanHaltingDuration="0.00" maxHaltingDuration="0.00" haltingDurationSum="0.00" meanIntervalHaltingDuration="0.00" maxIntervalHaltingDuration="0.00" intervalHaltingDurationSum="0.00" startedHalts="0.00" meanVehicleNumber="27.28" maxVehicleNumber="32" />
    <interval begin="1380.00" end="1440.00" id="ramp_eval_0_0" nVehContrib="12" flow="720.00" occupancy="10.59" speed="9.96" length="5.00" nVehEntered="13"/>
    <interval begin="1380.00" end="1440.00" id="ramp_eval_2_0" nVehContrib="18" flow="1080.00" occupancy="16.82" speed="8.95" length="5.00" nVehEntered="18"/>
   <interval begin="1380.00" end="1440.00" id="ramp_eval_1_0" sampledSeconds="1776.78" nVehEntered="13" nVehLeft="17" nVehSeen="42" meanSpeed="9.64" meanTimeLoss="5.55" meanOccupancy="12.48" maxOccupancy="13.56" meanMaxJamLengthInVehicles="0.00" meanMaxJamLengthInMeters="0.00" maxJamLengthInVehicles="0" maxJamLengthInMeters="0.00" jamLengthInVehiclesSum="0" jamLengthInMetersSum="0.00" meanHaltingDuration="0.00" maxHaltingDuration="0.00" haltingDurationSum="0.00" meanIntervalHaltingDuration="0.00" maxIntervalHaltingDuration="0.00" intervalHaltingDurationSum="0.00" startedHalts="0.00" meanVehicleNumber="29.87" maxVehicleNumber="33" />
    <interval begin="1440.00" end="1500.00" id="ramp_eval_0_0" nVehContrib="12" flow="720.00" occupancy="10.26" speed="9.33" length="5.00" nVehEntered="11"/>
    <interval begin="1440.00" end="1500.00" id="ramp_eval_2_0" nVehContrib="13" flow="780.00" occupancy="10.85" speed="10.02" length="5.00" nVehEntered="13"/>
   <interval begin="1440.00" end="1500.00" id="ramp_eval_1_0" sampledSeconds="1516.21" nVehEntered="13" nVehLeft="14" nVehSeen="38" meanSpeed="9.57" meanTimeLoss="4.60" meanOccupancy="10.64" maxOccupancy="11.86" meanMaxJamLengthInVehicles="0.00" meanMaxJamLengthInMeters="0.00" maxJamLengthInVehicles="0" maxJamLengthInMeters="0.00" jamLengthInVehiclesSum="0" jamLengthInMetersSum="0.00" meanHaltingDuration="1.00" maxHaltingDuration="1.00" haltingDurationSum="1.00" meanIntervalHaltingDuration="1.00" maxIntervalHaltingDuration="1.00" intervalHaltingDurationSum="1.00" startedHalts="1.00" meanVehicleNumber="25.50" maxVehicleNumber="29" />
    <interval begin="1500.00" end="1560.00" id="ramp_eval_0_0" nVehContrib="16" flow="960.00" occupancy="13.78" speed="9.72" length="5.00" nVehEntered="16"/>
    <interval begin="1500.00" end="1560.00" id="ramp_eval_2_0" nVehContrib="10" flow="600.00" occupancy="8.58" speed="9.72" length="5.00" nVehEntered="10"/>
   <interval begin="1500.00" end="1560.00" id="ramp_eval_1_0" sampledSeconds="1576.44" nVehEntered="14" nVehLeft="10" nVehSeen="38" meanSpeed="9.43" meanTimeLoss="4.85" meanOccupancy="11.10" maxOccupancy="11.93" meanMaxJamLengthInVehicles="0.00" meanMaxJamLengthInMeters="0.00" maxJamLengthInVehicles="0" maxJamLengthInMeters="0.00" jamLengthInVehiclesSum="0" jamLengthInMetersSum="0.00" meanHaltingDuration="0.00" maxHaltingDuration="0.00" haltingDurationSum="0.00" meanIntervalHaltingDuration="0.00" maxIntervalHaltingDuration="0.00" intervalHaltingDurationSum="0.00" startedHalts="0.00" meanVehicleNumber="26.43" maxVehicleNumber="29" />
    <interval begin="1560.00" end="1620.00" id="ramp_eval_0_0" nVehContrib="12" flow="720.00" occupancy="11.08" speed="9.72" length="5.00" nVehEntered="13"/>
    <interval begin="1560.00" end="1620.00" id="ramp_eval_2_0" nVehContrib="16" flow="960.00" occupancy="15.72" speed="8.51" length="5.00" nVehEntered="16"/>
   <interval begin="1560.00" end="1620.00" id="ramp_eval_1_0" sampledSeconds="1843.91" nVehEntered="14" nVehLeft="12" nVehSeen="42" meanSpeed="9.38" meanTimeLoss="5.96" meanOccupancy="12.97" maxOccupancy="14.41" meanMaxJamLengthInVehicles="0.00" meanMaxJamLengthInMeters="0.00" maxJamLengthInVehicles="0" maxJamLengthInMeters="0.00" jamLengthInVehiclesSum="0" jamLengthInMetersSum="0.00" meanHaltingDuration="0.00" maxHaltingDuration="0.00" haltingDurationSum="0.00" meanIntervalHaltingDuration="0.00" maxIntervalHaltingDuration="0.00" intervalHaltingDurationSum="0.00" startedHalts="0.00" meanVehicleNumber="30.92" maxVehicleNumber="34" />
    <interval begin="1620.00" end="1680.00" id="ramp_eval_0_0" nVehContrib="15" flow="900.00" occupancy="11.64" speed="10.11" length="5.00" nVehEntered="14"/>
    <interval begin="1620.00" end="1680.00" id="ramp_eval_2_0" nVehContrib="13" flow="780.00" occupancy="11.05" speed="9.81" length="5.00" nVehEntered="13"/>
   <interval begin="1620.00" end="1680.00" id="ramp_eval_1_0" sampledSeconds="1612.17" nVehEntered="12" nVehLeft="15" nVehSeen="42" meanSpeed="9.77" meanTimeLoss="4.34" meanOccupancy="11.34" maxOccupancy="12.29" meanMaxJamLengthInVehicles="0.00" meanMaxJamLengthInMeters="0.00" maxJamLengthInVehicles="0" maxJamLengthInMeters="0.00" jamLengthInVehiclesSum="0" jamLengthInMetersSum="0.00" meanHaltingDuration="0.00" maxHaltingDuration="0.00" haltingDurationSum="0.00" meanIntervalHaltingDuration="0.00" maxIntervalHaltingDuration="0.00" intervalHaltingDurationSum="0.00" startedHalts="0.00" meanVehicleNumber="27.12" maxVehicleNumber="30" />
    <interval begin="1680.00" end="1740.00" id="ramp_eval_0_0" nVehContrib="12" flow="720.00" occupancy="10.36" speed="9.69" length="5.00" nVehEntered="12"/>
    <interval begin="1680.00" end="1740.00" id="ramp_eval_2_0" nVehContrib="14" flow="840.00" occupancy="12.36" speed="9.45" length="5.00" nVehEntered="14"/>
   <interval begin="1680.00" end="1740.00" id="ramp_eval_1_0" sampledSeconds="1640.57" nVehEntered="14" nVehLeft="15" nVehSeen="41" meanSpeed="9.71" meanTimeLoss="4.79" meanOccupancy="11.52" maxOccupancy="12.71" meanMaxJamLengthInVehicles="0.00" meanMaxJamLengthInMeters="0.00" maxJamLengthInVehicles="0" maxJamLengthInMeters="0.00" jamLengthInVehiclesSum="0" jamLengthInMetersSum="0.00" meanHaltingDuration="0.00" maxHaltingDuration="0.00" haltingDurationSum="0.00" meanIntervalHaltingDuration="0.00" maxIntervalHaltingDuration="0.00" intervalHaltingDurationSum="0.00" startedHalts="0.00" meanVehicleNumber="27.60" maxVehicleNumber="30" />
    <interval begin="1740.00" end="1800.00" id="ramp_eval_0_0" nVehContrib="14" flow="840.00" occupancy="11.53" speed="10.15" length="5.00" nVehEntered="14"/>
    <interval begin="1740.00" end="1800.00" id="ramp_eval_2_0" nVehContrib="11" flow="660.00" occupancy="9.36" speed="9.82" length="5.00" nVehEntered="11"/>
   <interval begin="1740.00" end="1800.00" id="ramp_eval_1_0" sampledSeconds="1581.47" nVehEntered="14" nVehLeft="11" nVehSeen="40" meanSpeed="9.69" meanTimeLoss="4.72" meanOccupancy="11.14" maxOccupancy="12.29" meanMaxJamLengthInVehicles="0.00" meanMaxJamLengthInMeters="0.00" maxJamLengthInVehicles="0" maxJamLengthInMeters="0.00" jamLengthInVehiclesSum="0" jamLengthInMetersSum="0.00" meanHaltingDuration="0.00" maxHaltingDuration="0.00" haltingDurationSum="0.00" meanIntervalHaltingDuration="0.00" maxIntervalHaltingDuration="0.00" intervalHaltingDurationSum="0.00" startedHalts="0.00" meanVehicle00" meanVehicleNumber="26.40" maxVehicleNumber="29" />
egin="1800.00" end="1860.00" id="ramp_eval_0_0" nVehContrib="13" flow="780.00" occupancy="11.52" speed="9.51" length="5.00" nVehEntered="13"/>
    <interval begin="1800.00" end="1860.00" id="ramp_eval_2_0" nVehContrib="15" flow="900.00" occupancy="13.09" speed="9.58" length="5.00" nVehEntered="15"/>