<?xml version="1.0" encoding="UTF-8"?>

<!-- generated on 02/12/19 15:51:20 by Eclipse SUMO Version 1.0.1
<configuration xmlns:xsi="http://www.w3.org/2001/XMLSchema-instance" xsi:noNamespaceSchemaLocation="http://sumo.dlr.de/xsd/sumoConfiguration.xsd">

    <input>
        <net-file value="./project/ramp.net.xml"/>
        <route-files value="./project/ramp.rou.xml"/>
        <additional-files value="./project/ramp.add.xml"/>
    </input>

    <time>
        <begin value="0"/>
    </time>

    <report>
        <verbose value="true"/>
        <no-step-log value="true"/>
    </report>

    <traci_server>
        <remote-port value="56967"/>
    </traci_server>

    <random_number>
        <seed value="1594548030"/>
    </random_number>

    <gui_only>
        <quit-on-end value="true"/>
        <start value="true"/>
    </gui_only>

</configuration>
-->

<detector xmlns:xsi="http://www.w3.org/2001/XMLSchema-instance" xsi:noNamespaceSchemaLocation="http://sumo.dlr.de/xsd/det_e1_file.xsd">
    <interval begin="0.00" end="60.00" id="ramp_eval_0_0" nVehContrib="3" flow="180.00" occupancy="2.39" speed="10.46" length="5.00" nVehEntered="3"/>
    <interval begin="0.00" end="60.00" id="ramp_eval_2_0" nVehContrib="0" flow="0.00" occupancy="0.00" speed="-1.00" length="-1.00" nVehEntered="0"/>
   <interval begin="0.00" end="60.00" id="ramp_eval_1_0" sampledSeconds="218.08" nVehEntered="10" nVehLeft="0" nVehSeen="10" meanSpeed="10.49" meanTimeLoss="1.67" meanOccupancy="1.55" maxOccupancy="4.24" meanMaxJamLengthInVehicles="0.00" meanMaxJamLengthInMeters="0.00" maxJamLengthInVehicles="0" maxJamLengthInMeters="0.00" jamLengthInVehiclesSum="0" jamLengthInMetersSum="0.00" meanHaltingDuration="0.00" maxHaltingDuration="0.00" haltingDurationSum="0.00" meanIntervalHaltingDuration="0.00" maxIntervalHaltingDuration="0.00" intervalHaltingDurationSum="0.00" startedHalts="0.00" meanVehicleNumber="3.70" maxVehicleNumber="10" />
    <interval begin="60.00" end="120.00" id="ramp_eval_0_0" nVehContrib="18" flow="1080.00" occupancy="16.70" speed="9.06" length="5.00" nVehEntered="18"/>
    <interval begin="60.00" end="120.00" id="ramp_eval_2_0" nVehContrib="0" flow="0.00" occupancy="0.00" speed="-1.00" length="-1.00" nVehEntered="0"/>
   <interval begin="60.00" end="120.00" id="ramp_eval_1_0" sampledSeconds="1267.15" nVehEntered="19" nVehLeft="0" nVehSeen="29" meanSpeed="9.24" meanTimeLoss="6.41" meanOccupancy="8.98" maxOccupancy="12.29" meanMaxJamLengthInVehicles="0.00" meanMaxJamLengthInMeters="0.00" maxJamLengthInVehicles="0" maxJamLengthInMeters="0.00" jamLengthInVehiclesSum="0" jamLengthInMetersSum="0.00" meanHaltingDuration="0.00" maxHaltingDuration="0.00" haltingDurationSum="0.00" meanIntervalHaltingDuration="0.00" maxIntervalHaltingDuration="0.00" intervalHaltingDurationSum="0.00" startedHalts="0.00" meanVehicleNumber="21.22" maxVehicleNumber="29" />
    <interval begin="120.00" end="180.00" id="ramp_eval_0_0" nVehContrib="16" flow="960.00" occupancy="16.76" speed="8.03" length="5.00" nVehEntered="16"/>
    <interval begin="120.00" end="180.00" id="ramp_eval_2_0" nVehContrib="9" flow="540.00" occupancy="7.45" speed="10.10" length="5.00" nVehEntered="9"/>
   <interval begin="120.00" end="180.00" id="ramp_eval_1_0" sampledSeconds="2182.80" nVehEntered="21" nVehLeft="8" nVehSeen="50" meanSpeed="8.46" meanTimeLoss="8.90" meanOccupancy="15.40" maxOccupancy="17.80" meanMaxJamLengthInVehicles="0.00" meanMaxJamLengthInMeters="0.00" maxJamLengthInVehicles="0" maxJamLengthInMeters="0.00" jamLengthInVehiclesSum="0" jamLengthInMetersSum="0.00" meanHaltingDuration="0.00" maxHaltingDuration="0.00" haltingDurationSum="0.00" meanIntervalHaltingDuration="0.00" maxIntervalHaltingDuration="0.00" intervalHaltingDurationSum="0.00" startedHalts="0.00" meanVehicleNumber="36.65" maxVehicleNumber="42" />
    <interval begin="180.00" end="240.00" id="ramp_eval_0_0" nVehContrib="20" flow="1200.00" occupancy="20.88" speed="8.17" length="5.00" nVehEntered="20"/>
    <interval begin="180.00" end="240.00" id="ramp_eval_2_0" nVehContrib="20" flow="1200.00" occupancy="20.20" speed="8.27" length="5.00" nVehEntered="20"/>
   <interval begin="180.00" end="240.00" id="ramp_eval_1_0" sampledSeconds="2581.07" nVehEntered="17" nVehLeft="15" nVehSeen="59" meanSpeed="8.16" meanTimeLoss="10.90" meanOccupancy="18.19" maxOccupancy="19.12" meanMaxJamLengthInVehicles="0.00" meanMaxJamLengthInMeters="0.00" maxJamLengthInVehicles="0" maxJamLengthInMeters="0.00" jamLengthInVehiclesSum="0" jamLengthInMetersSum="0.00" meanHaltingDuration="0.00" maxHaltingDuration="0.00" haltingDurationSum="0.00" meanIntervalHaltingDuration="0.00" maxIntervalHaltingDuration="0.00" intervalHaltingDurationSum="0.00" startedHalts="0.00" meanVehicleNumber="43.27" maxVehicleNumber="46" />
    <interval begin="240.00" end="300.00" id="ramp_eval_0_0" nVehContrib="18" flow="1080.00" occupancy="15.66" speed="9.64" length="5.00" nVehEntered="18"/>
    <interval begin="240.00" end="300.00" id="ramp_eval_2_0" nVehContrib="14" flow="840.00" occupancy="16.25" speed="7.22" length="5.00" nVehEntered="14"/>
   <interval begin="240.00" end="300.00" id="ramp_eval_1_0" sampledSeconds="2812.16" nVehEntered="19" nVehLeft="13" nVehSeen="63" meanSpeed="8.24" meanTimeLoss="11.28" meanOccupancy="19.81" maxOccupancy="22.03" meanMaxJamLengthInVehicles="0.00" meanMaxJamLengthInMeters="0.00" maxJamLengthInVehicles="0" maxJamLengthInMeters="0.00" jamLengthInVehiclesSum="0" jamLengthInMetersSum="0.00" meanHaltingDuration="0.00" maxHaltingDuration="0.00" haltingDurationSum="0.00" meanIntervalHaltingDuration="0.00" maxIntervalHaltingDuration="0.00" intervalHaltingDurationSum="0.00" startedHalts="0.00" meanVehicleNumber="47.13" maxVehicleNumber="52" />
</detector>
