<?xml version="1.0" encoding="UTF-8"?>

<!-- generated on 02/24/19 20:40:09 by Eclipse SUMO Version 1.0.1
<configuration xmlns:xsi="http://www.w3.org/2001/XMLSchema-instance" xsi:noNamespaceSchemaLocation="http://sumo.dlr.de/xsd/sumoConfiguration.xsd">

    <input>
        <net-file value="./project/ramp.net.xml"/>
        <route-files value="./project/ramp.rou.xml"/>
        <additional-files value="./project/ramp.add.xml"/>
    </input>

    <time>
        <begin value="0"/>
    </time>

    <report>
        <verbose value="true"/>
        <no-step-log value="true"/>
    </report>

    <traci_server>
        <remote-port value="59151"/>
    </traci_server>

    <random_number>
        <seed value="1469808125"/>
    </random_number>

    <gui_only>
        <quit-on-end value="true"/>
        <start value="true"/>
    </gui_only>

</configuration>
-->

<detector xmlns:xsi="http://www.w3.org/2001/XMLSchema-instance" xsi:noNamespaceSchemaLocation="http://sumo.dlr.de/xsd/det_e1_file.xsd">
    <interval begin="0.00" end="60.00" id="ramp_eval_0_0" nVehContrib="1" flow="60.00" occupancy="0.92" speed="9.05" length="5.00" nVehEntered="1"/>
    <interval begin="0.00" end="60.00" id="ramp_eval_2_0" nVehContrib="0" flow="0.00" occupancy="0.00" speed="-1.00" length="-1.00" nVehEntered="0"/>
   <interval begin="0.00" end="60.00" id="mainline_up_0_2" sampledSeconds="0.00" nVehEntered="0" nVehLeft="0" nVehSeen="0" meanSpeed="-1.00" meanTimeLoss="-1.00" meanOccupancy="0.00" maxOccupancy="0.00" meanMaxJamLengthInVehicles="0.00" meanMaxJamLengthInMeters="0.00" maxJamLengthInVehicles="0" maxJamLengthInMeters="0.00" jamLengthInVehiclesSum="0" jamLengthInMetersSum="0.00" meanHaltingDuration="0.00" maxHaltingDuration="0.00" haltingDurationSum="0.00" meanIntervalHaltingDuration="0.00" maxIntervalHaltingDuration="0.00" intervalHaltingDurationSum="0.00" startedHalts="0.00" meanVehicleNumber="0.00" maxVehicleNumber="0" />
   <interval begin="0.00" end="60.00" id="mainline_up_1_2" sampledSeconds="0.00" nVehEntered="0" nVehLeft="0" nVehSeen="0" meanSpeed="-1.00" meanTimeLoss="-1.00" meanOccupancy="0.00" maxOccupancy="0.00" meanMaxJamLengthInVehicles="0.00" meanMaxJamLengthInMeters="0.00" maxJamLengthInVehicles="0" maxJamLengthInMeters="0.00" jamLengthInVehiclesSum="0" jamLengthInMetersSum="0.00" meanHaltingDuration="0.00" maxHaltingDuration="0.00" haltingDurationSum="0.00" meanIntervalHaltingDuration="0.00" maxIntervalHaltingDuration="0.00" intervalHaltingDurationSum="0.00" startedHalts="0.00" meanVehicleNumber="0.00" maxVehicleNumber="0" />
   <interval begin="0.00" end="60.00" id="mainline_up_2_2" sampledSeconds="0.00" nVehEntered="0" nVehLeft="0" nVehSeen="0" meanSpeed="-1.00" meanTimeLoss="-1.00" meanOccupancy="0.00" maxOccupancy="0.00" meanMaxJamLengthInVehicles="0.00" meanMaxJamLengthInMeters="0.00" maxJamLengthInVehicles="0" maxJamLengthInMeters="0.00" jamLengthInVehiclesSum="0" jamLengthInMetersSum="0.00" meanHaltingDuration="0.00" maxHaltingDuration="0.00" haltingDurationSum="0.00" meanIntervalHaltingDuration="0.00" maxIntervalHaltingDuration="0.00" intervalHaltingDurationSum="0.00" startedHalts="0.00" meanVehicleNumber="0.00" maxVehicleNumber="0" />
    <interval begin="60.00" end="120.00" id="ramp_eval_0_0" nVehContrib="21" flow="1260.00" occupancy="18.61" speed="9.43" length="5.00" nVehEntered="21"/>
    <interval begin="60.00" end="120.00" id="ramp_eval_2_0" nVehContrib="0" flow="0.00" occupancy="0.00" speed="-1.00" length="-1.00" nVehEntered="0"/>
   <interval begin="60.00" end="120.00" id="mainline_up_0_2" sampledSeconds="242.56" nVehEntered="14" nVehLeft="6" nVehSeen="14" meanSpeed="21.20" meanTimeLoss="0.54" meanOccupancy="2.56" maxOccupancy="5.65" meanMaxJamLengthInVehicles="0.00" meanMaxJamLengthInMeters="0.00" maxJamLengthInVehicles="0" maxJamLengthInMeters="0.00" jamLengthInVehiclesSum="0" jamLengthInMetersSum="0.00" meanHaltingDuration="0.00" maxHaltingDuration="0.00" haltingDurationSum="0.00" meanIntervalHaltingDuration="0.00" maxIntervalHaltingDuration="0.00" intervalHaltingDurationSum="0.00" startedHalts="0.00" meanVehicleNumber="4.18" maxVehicleNumber="9" />
   <interval begin="60.00" end="120.00" id="mainline_up_1_2" sampledSeconds="249.17" nVehEntered="19" nVehLeft="5" nVehSeen="19" meanSpeed="21.78" meanTimeLoss="0.66" meanOccupancy="2.66" maxOccupancy="8.79" meanMaxJamLengthInVehicles="0.00" meanMaxJamLengthInMeters="0.00" maxJamLengthInVehicles="0" maxJamLengthInMeters="0.00" jamLengthInVehiclesSum="0" jamLengthInMetersSum="0.00" meanHaltingDuration="0.00" maxHaltingDuration="0.00" haltingDurationSum="0.00" meanIntervalHaltingDuration="0.00" maxIntervalHaltingDuration="0.00" intervalHaltingDurationSum="0.00" startedHalts="0.00" meanVehicleNumber="4.27" maxVehicleNumber="14" />
   <interval begin="60.00" end="120.00" id="mainline_up_2_2" sampledSeconds="191.43" nVehEntered="17" nVehLeft="2" nVehSeen="17" meanSpeed="22.70" meanTimeLoss="0.79" meanOccupancy="2.07" maxOccupancy="9.42" meanMaxJamLengthInVehicles="0.00" meanMaxJamLengthInMeters="0.00" maxJamLengthInVehicles="0" maxJamLengthInMeters="0.00" jamLengthInVehiclesSum="0" jamLengthInMetersSum="0.00" meanHaltingDuration="0.00" maxHaltingDuration="0.00" haltingDurationSum="0.00" meanIntervalHaltingDuration="0.00" maxIntervalHaltingDuration="0.00" intervalHaltingDurationSum="0.00" startedHalts="0.00" meanVehicleNumber="3.33" maxVehicleNumber="15" />
    <interval begin="120.00" end="180.00" id="ramp_eval_0_0" nVehContrib="16" flow="960.00" occupancy="13.51" speed="9.96" length="5.00" nVehEntered="16"/>
    <interval begin="120.00" end="180.00" id="ramp_eval_2_0" nVehContrib="14" flow="840.00" occupancy="12.60" speed="9.27" length="5.00" nVehEntered="14"/>
   <interval begin="120.00" end="180.00" id="mainline_up_0_2" sampledSeconds="690.01" nVehEntered="21" nVehLeft="16" nVehSeen="29" meanSpeed="18.24" meanTimeLoss="2.23" meanOccupancy="7.18" maxOccupancy="8.79" meanMaxJamLengthInVehicles="0.00" meanMaxJamLengthInMeters="0.00" maxJamLengthInVehicles="0" maxJamLengthInMeters="0.00" jamLengthInVehiclesSum="0" jamLengthInMetersSum="0.00" meanHaltingDuration="0.00" maxHaltingDuration="0.00" haltingDurationSum="0.00" meanIntervalHaltingDuration="0.00" maxIntervalHaltingDuration="0.00" intervalHaltingDurationSum="0.00" startedHalts="0.00" meanVehicleNumber="11.77" maxVehicleNumber="14" />
   <interval begin="120.00" end="180.00" id="mainline_up_1_2" sampledSeconds="1105.57" nVehEntered="36" nVehLeft="31" nVehSeen="50" meanSpeed="19.76" meanTimeLoss="2.36" meanOccupancy="11.53" maxOccupancy="13.82" meanMaxJamLengthInVehicles="0.00" meanMaxJamLengthInMeters="0.00" maxJamLengthInVehicles="0" maxJamLengthInMeters="0.00" jamLengthInVehiclesSum="0" jamLengthInMetersSum="0.00" meanHaltingDuration="0.00" maxHaltingDuration="0.00" haltingDurationSum="0.00" meanIntervalHaltingDuration="0.00" maxIntervalHaltingDuration="0.00" intervalHaltingDurationSum="0.00" startedHalts="0.00" meanVehicleNumber="18.82" maxVehicleNumber="22" />
   <interval begin="120.00" end="180.00" id="mainline_up_2_2" sampledSeconds="1078.49" nVehEntered="37" nVehLeft="29" nVehSeen="52" meanSpeed="21.44" meanTimeLoss="1.90" meanOccupancy="11.27" maxOccupancy="14.45" meanMaxJamLengthInVehicles="0.00" meanMaxJamLengthInMeters="0.00" maxJamLengthInVehicles="0" maxJamLengthInMeters="0.00" jamLengthInVehiclesSum="0" jamLengthInMetersSum="0.00" meanHaltingDuration="0.00" maxHaltingDuration="0.00" haltingDurationSum="0.00" meanIntervalHaltingDuration="0.00" maxIntervalHaltingDuration="0.00" intervalHaltingDurationSum="0.00" startedHalts="0.00" meanVehicleNumber="18.45" maxVehicleNumber="23" />
    <interval begin="180.00" end="240.00" id="ramp_eval_0_0" nVehContrib="18" flow="1080.00" occupancy="16.26" speed="9.40" length="5.00" nVehEntered="19"/>
    <interval begin="180.00" end="240.00" id="ramp_eval_2_0" nVehContrib="18" flow="1080.00" occupancy="16.24" speed="9.28" length="5.00" nVehEntered="18"/>
   <interval begin="180.00" end="240.00" id="mainline_up_0_2" sampledSeconds="637.23" nVehEntered="18" nVehLeft="22" nVehSeen="31" meanSpeed="18.78" meanTimeLoss="1.34" meanOccupancy="6.64" maxOccupancy="8.17" meanMaxJamLengthInVehicles="0.00" meanMaxJamLengthInMeters="0.00" maxJamLengthInVehicles="0" maxJamLengthInMeters="0.00" jamLengthInVehiclesSum="0" jamLengthInMetersSum="0.00" meanHaltingDuration="0.00" maxHaltingDuration="0.00" haltingDurationSum="0.00" meanIntervalHaltingDuration="0.00" maxIntervalHaltingDuration="0.00" intervalHaltingDurationSum="0.00" startedHalts="0.00" meanVehicleNumber="10.83" maxVehicleNumber="13" />
   <interval begin="180.00" end="240.00" id="mainline_up_1_2" sampledSeconds="901.96" nVehEntered="35" nVehLeft="38" nVehSeen="54" meanSpeed="20.32" meanTimeLoss="1.62" meanOccupancy="9.33" maxOccupancy="12.58" meanMaxJamLengthInVehicles="0.00" meanMaxJamLengthInMeters="0.00" maxJamLengthInVehicles="0" maxJamLengthInMeters="0.00" jamLengthInVehiclesSum="0" jamLengthInMetersSum="0.00" meanHaltingDuration="0.00" maxHaltingDuration="0.00" haltingDurationSum=m="0.00" meanIntervalHaltingDuration="0.00" maxIntervalHaltingDuration="0.00" intervalHaltingDurationSum="0.00" startedHalts="0.00" meanVehicleNumber="20.15" maxVehicleNumber="24" />
   <interval begin="180.00" end="240.00" id="mainline_up_2_2" sampledSeconds="1308.61" nVehEntered="40" nVehLeft="34" nVehSeen="59" meanSpeed="20.64" meanTimeLoss="2.63" meanOccupancy="13.63" maxOccupancy="15.71" meanMaxJamLengthInVehicles="0.00" meanMaxJamLengthInMeters="0.00" maxJamLengthInVehicles="0" maxJamLengthInMeters="0.00" jamLengthInVehiclesSum="0" jamLengthInMetersSum="0.00" meanHaltingDuration="0.00" maxHaltingDuration="0.00" haltingDurationSum="0.00" meanIntervalHaltingDuration="0.00" maxIntervalHaltingDuration="0.00" intervalHaltingDurationSum="0.00" startedHalts="0.00" meanVehicleNumber="22.42" maxVehicleNumber="26" />
    <interval begin="240.00" end="300.00" id="ramp_eval_0_0" nVehContrib="17" flow="1020.00" occupancy="16.58" speed="9.09" length="5.00" nVehEntered="18"/>
    <interval begin="240.00" end="300.00" id="ramp_eval_2_0" nVehContrib="9" flow="540.00" occupancy="8.01" speed="9.38" length="5.00" nVehEntered="9"/>
   <interval begin="240.00" end="300.00" id="mainline_up_0_2" sampledSeconds="880.05" nVehEntered="27" nVehLeft="25" nVehSeen="39" meanSpeed="16.44" meanTimeLoss="3.94" meanOccupancy="9.14" maxOccupancy="10.68" meanMaxJamLengthInVehicles="0.03" meanMaxJamLengthInMeters="0.02" maxJamLengthInVehicles="1" maxJamLengthInMeters="1.04" jamLengthInVehiclesSum="2" jamLengthInMetersSum="1.04" meanHaltingDuration="1.00" maxHaltingDuration="1.00" haltingDurationSum="1.00" meanIntervalHaltingDuration="1.00" maxIntervalHaltingDuration="1.00" intervalHaltingDurationSum="1.00" startedHalts="2.00" meanVehicleNumber="15.02" maxVehicleNumber="18" />
   <interval begin="240.00" end="300.00" id="mainline_up_1_2" sampledSeconds="1303.95" nVehEntered="40" nVehLeft="41" nVehSeen="61" meanSpeed="17.87" meanTimeLoss="3.89" meanOccupancy="13.52" maxOccupancy="15.22" meanMaxJamLengthInVehicles="0.00" meanMaxJamLengthInMeters="0.00" maxJamLengthInVehicles="0" maxJamLengthInMeters="0.00" jamLengthInVehiclesSum="0" jamLengthInMetersSum="0.00" meanHaltingDuration="0.00" maxHaltingDuration="0.00" haltingDurationSum="0.00" meanIntervalHaltingDuration="0.00" maxIntervalHaltingDuration="0.00" intervalHaltingDurationSum="0.00" startedHalts="0.00" meanVehicleNumber="22.20" maxVehicleNumber="25" />
   <interval begin="240.00" end="300.00" id="mainline_up_2_2" sampledSeconds="1374.02" nVehEntered="40" nVehLeft="43" nVehSeen="65" meanSpeed="20.72" meanTimeLoss="2.56" meanOccupancy="14.25" maxOccupancy="15.82" meanMaxJamLengthInVehicles="0.00" meanMaxJamLengthInMeters="0.00" maxJamLengthInVehicles="0" maxJamLengthInMeters="0.00" jamLengthInVehiclesSum="0" jamLengthInMetersSum="0.00" meanHaltingDuration="0.00" maxHaltingDuration="0.00" haltingDurationSum="0.00" meanIntervalHaltingDuration="0.00" maxIntervalHaltingDuration="0.00" intervalHaltingDurationSum="0.00" startedHalts="0.00" meanVehicleNumber="23.45" maxVehicleNumber="26" />

    <interval begin="300.00" end="360.00" id="ramp_eval_0_0" nVehContrib="20" flow="1200.00" occupancy="20.96" speed="8.00" length="5.00" nVehEntered="20"/>
    <interval begin="300.00" end="360.00" id="ramp_eval_2_0" nVehContrib="22" flow="1320.00" occupancy="20.90" speed="8.80" length="5.00" nVehEntered="22"/>
   <interval begin="300.00" end="360.00" id="mainline_up_0_2" sampledSeconds="932.74" nVehEntered="30" nVehLeft="22" nVehSeen="43" meanSpeed="13.76" meanTimeLoss="2.48" meanOccupancy="9.68" maxOccupancy="13.19" meanMaxJamLengthInVehicles="0.02" meanMaxJamLengthInMeters="0.08" maxJamLengthInVehicles="1" maxJamLengthInMeters="5.00" jamLengthInVehiclesSum="1" jamLengthInMetersSum="5.00" meanHaltingDuration="1.33" maxHaltingDuration="2.00" haltingDurationSum="4.00" meanIntervalHaltingDuration="1.33" maxIntervalHaltingDuration="2.00" intervalHaltingDurationSum="4.00" startedHalts="3.00" meanVehicleNumber="15.78" maxVehicleNumber="22" />
   <interval begin="300.00" end="360.00" id="mainline_up_1_2" sampledSeconds="1233.39" nVehEntered="49" nVehLeft="44" nVehSeen="66" meanSpeed="14.79" meanTimeLoss="2.08" meanOccupancy="12.83" maxOccupancy="14.45" meanMaxJamLengthInVehicles="0.00" meanMaxJamLengthInMeters="0.00" maxJamLengthInVehicles="0" maxJamLengthInMeters="0.00" jamLengthInVehiclesSum="0" jamLengthInMetersSum="0.00" meanHaltingDuration="1.00" maxHaltingDuration="1.00" haltingDurationSum="1.00" meanIntervalHaltingDuration="1.00" maxIntervalHaltingDuration="1.00" intervalHaltingDurationSum="1.00" startedHalts="1.00" meanVehicleNumber="20.93" maxVehicleNumber="24" />
   <interval begin="300.00" end="360.00" id="mainline_up_2_2" sampledSeconds="1475.33" nVehEntered="38" nVehLeft="41" nVehSeen="63" meanSpeed="15.01" meanTimeLoss="2.37" meanOccupancy="15.38" maxOccupancy="18.04" meanMaxJamLengthInVehicles="0.00" meanMaxJamLengthInMeters="0.00" maxJamLengthInVehicles="0" maxJamLengthInMeters="0.00" jamLengthInVehiclesSum="0" jamLengthInMetersSum="0.00" meanHaltingDuration="0.00" maxHaltingDuration="0.00" haltingDurationSum="0.00" meanIntervalHaltingDuration="0.00" maxIntervalHaltingDuration="0.00" intervalHaltingDurationSum="0.00" startedHalts="0.00" meanVehicleNumber="25.07" maxVehicleNumber="29" />
    <interval begin="360.00" end="420.00" id="ramp_eval_0_0" nVehContrib="20" flow="1200.00" occupancy="18.65" speed="9.00" length="5.00" nVehEntered="20"/>
    <interval begin="360.00" end="420.00" id="ramp_eval_2_0" nVehContrib="7" flow="420.00" occupancy="7.81" speed="8.84" length="5.00" nVehEntered="8"/>
   <interval begin="360.00" end="420.00" id="mainline_up_0_2" sampledSeconds="1336.60" nVehEntered="23" nVehLeft="28" nVehSeen="44" meanSpeed="15.84" meanTimeLoss="6.67" meanOccupancy="13.88" maxOccupancy="16.24" meanMaxJamLengthInVehicles="0.02" meanMaxJamLengthInMeters="0.02" maxJamLengthInVehicles="1" maxJamLengthInMeters="1.44" jamLengthInVehiclesSum="1" jamLengthInMetersSum="1.44" meanHaltingDuration="1.50" maxHaltingDuration="2.00" haltingDurationSum="3.00" meanIntervalHaltingDuration="1.50" maxIntervalHaltingDuration="2.00" intervalHaltingDurationSum="3.00" startedHalts="2.00" meanVehicleNumber="22.63" maxVehicleNumber="27" />
   <interval begin="360.00" end="420.00" id="mainline_up_1_2" sampledSeconds="1660.11" nVehEntered="41" nVehLeft="38" nVehSeen="63" meanSpeed="15.94" meanTimeLoss="6.66" meanOccupancy="17.25" maxOccupancy="19.01" meanMaxJamLengthInVehicles="0.00" meanMaxJamLengthInMeters="0.00" maxJamLengthInVehicles="0" maxJamLengthInMeters="0.00" jamLengthInVehiclesSum="0" jamLengthInMetersSum="0.00" meanHaltingDuration="0.00" maxHaltingDuration="0.00" haltingDurationSum="0.00" meanIntervalHaltingDuration="0.00" maxIntervalHaltingDuration="0.00" intervalHaltingDurationSum="0.00" startedHalts="0.00" meanVehicleNumber="28.17" maxVehicleNumber="31" />
   <interval begin="360.00" end="420.00" id="mainline_up_2_2" sampledSeconds="1527.03" nVehEntered="39" nVehLeft="37" nVehSeen="61" meanSpeed="17.93" meanTimeLoss="4.70" meanOccupancy="15.89" maxOccupancy="17.67" meanMaxJamLengthInVehicles="0.00" meanMaxJamLengthInMeters="0.00" maxJamLengthInVehicles="0" maxJamLengthInMeters="0.00" jamLengthInVehiclesSum="0" jamLengthInMetersSum="0.00" meanHaltingDuration="0.00" maxHaltingDuration="0.00" haltingDurationSum="0.00" meanIntervalHaltingDuration="0.00" maxIntervalHaltingDuration="0.00" intervalHaltingDurationSum="0.00" startedHalts="0.00" meanVehicleNumber="25.98" maxVehicleNumber="29" />
    <interval begin="420.00" end="480.00" id="ramp_eval_0_0" nVehContrib="18" flow="1080.00" occupancy="16.47" speed="9.15" length="5.00" nVehEntered="18"/>
    <interval begin="420.00" end="480.00" id="ramp_eval_2_0" nVehContrib="23" flow="1380.00" occupancy="23.58" speed="7.78" length="5.00" nVehEntered="22"/>
   <interval begin="420.00" end="480.00" id="mainline_up_0_2" sampledSeconds="978.86" nVehEntered="32" nVehLeft="33" nVehSeen="48" meanSpeed="16.08" meanTimeLoss="2.58" meanOccupancy="10.13" maxOccupancy="12.56" meanMaxJamLengthInVehicles="0.00" meanMaxJamLengthInMeters="0.00" maxJamLengthInVehicles="0" maxJamLengthInMeters="0.00" jamLengthInVehiclesSum="0" jamLengthInMetersSum="0.00" meanHaltingDuration="0.00" maxHaltingDuration="0.00" haltingDurationSum="0.00" meanIntervalHaltingDuration="0.00" maxIntervalHaltingDuration="0.00" intervalHaltingDurationSum="0.00" startedHalts="0.00" meanVehicleNumber="16.57" maxVehicleNumber="20" />
   <interval begin="420.00" end="480.00" id="mainline_up_1_2" sampledSeconds="1276.65" nVehEntered="57" nVehLeft="57" nVehSeen="82" meanSpeed="17.05" meanTimeLoss="1.67" meanOccupancy="13.23" maxOccupancy="15.70" meanMaxJamLengthInVehicles="0.00" meanMaxJamLengthInMeters="0.00" maxJamLengthInVehicles="0" maxJamLengthInMeters="0.00" jamLengthInVehiclesSum="0" jamLengthInMetersSum="0.00" meanHaltingDuration="0.00" maxHaltingDuration="0.00" haltingDurationSum="0.00" meanIntervalHaltingDuration="0.00" maxIntervalHaltingDuration="0.00" intervalHaltingDurationSum="0.00" startedHalts="0.00" meanVehicleNumber="21.82" maxVehicleNumber="26" />
   <interval begin="420.00" end="480.00" id="mainline_up_2_2" sampledSeconds="1235.72" nVehEntered="40" nVehLeft="40" nVehSeen="64" meanSpeed="18.16" meanTimeLoss="1.45" meanOccupancy="12.87" maxOccupancy="15.70" meanMaxJamLengthInVehicles="0.00" meanMaxJamLengthInMeters="0.00" maxJamLengthInVehicles="0" maxJamLengthInMeters="0.00" jamLengthInVehiclesSum="0" jamLengthInMetersSum="0.00" meanHaltingDuration="0.00" maxHaltingDuration="0.00" haltingDurationSum="0.00" meanIntervalHaltingDuration="0.00" maxIntervalHaltingDuration="0.00" intervalHaltingDurationSum="0.00" startedHalts="0.00" meanVehicleNumber="21.08" maxVehicleNumber="26" />
    <interval begin="480.00" end="540.00" id="ramp_eval_0_0" nVehContrib="19" flow="1140.00" occupancy="19.41" speed="8.21" length="5.00" nVehEntered="19"/>
    <interval begin="480.00" end="540.00" id="ramp_eval_2_0" nVehContrib="26" flow="1560.00" occupancy="25.13" speed="8.68" length="5.00" nVehEntered="26"/>
   <interval begin="480.00" end="540.00" id="mainline_up_0_2" sampledSeconds="988.35" nVehEntered="25" nVehLeft="22" nVehSeen="40" meanSpeed="13.40" meanTimeLoss="5.35" meanOccupancy="10.20" maxOccupancy="14.45" meanMaxJamLengthInVehicles="0.85" meanMaxJamLengthInMeters="5.53" maxJamLengthInVehicles="6" maxJamLengthInMeters="43.91" jamLengthInVehiclesSum="53" jamLengthInMetersSum="341.63" meanHaltingDuration="5.86" maxHaltingDuration="11.00" haltingDurationSum="41.00" meanIntervalHaltingDuration="5.86" maxIntervalHaltingDuration="11.00" intervalHaltingDurationSum="41.00" startedHalts="11.00" meanVehicleNumber="16.68" maxVehicleNumber="24" />
   <interval begin="480.00" end="540.00" id="mainline_up_1_2" sampledSeconds="1462.49" nVehEntered="49" nVehLeft="46" nVehSeen="74" meanSpeed="15.13" meanTimeLoss="3.91" meanOccupancy="15.20" maxOccupancy="18.84" meanMaxJamLengthInVehicles="0.10" meanMaxJamLengthInMeters="0.51" maxJamLengthInVehicles="2" maxJamLengthInMeters="13.91" jamLengthInVehiclesSum="6" jamLengthInMetersSum="30.59" meanHaltingDuration="1.86" maxHaltingDuration="3.00" haltingDurationSum="13.00" meanIntervalHaltingDuration="1.86" maxIntervalHaltingDuration="3.00" intervalHaltingDurationSum="13.00" startedHalts="7.00" meanVehicleNumber="24.83" maxVehicleNumber="30" />
   <interval begin="480.00" end="540.00" id="mainline_up_2_2" sampledSeconds="1370.92" nVehEntered="40" nVehLeft="41" nVehSeen="64" meanSpeed="16.42" meanTimeLoss="3.18" meanOccupancy="14.23" maxOccupancy="16.33" meanMaxJamLengthInVehicles="0.00" meanMaxJamLengthInMeters="0.00" maxJamLengthInVehicles="0" maxJamLengthInMeters="0.00" jamLengthInVehiclesSum="0" jamLengthInMetersSum="0.00" meanHaltingDuration="0.00" maxHaltingDuration="0.00" haltingDurationSum="0.00" meanIntervalHaltingDuration="0.00" maxIntervalHaltingDuration="0.00" intervalHaltingDurationSum="0.00" startedHalts="0.00" meanVehicleNumber="23.33" maxVehicleNumber="27" />
    <interval begin="540.00" end="600.00" id="ramp_eval_0_0" nVehContrib="19" flow="1140.00" occupancy="17.43" speed="9.15" length="5.00" nVehEntered="19"/>
    <interval begin="540.00" end="600.00" id="ramp_eval_2_0" nVehContrib="11" flow="660.00" occupancy="13.80" speed="7.39" length="5.00" nVehEntered="11"/>
   <interval begin="540.00" end="600.00" id="mainline_up_0_2" sampledSeconds="1259.12" nVehEntered="27" nVehLeft="25" nVehSeen="45" meanSpeed="14.04" meanTimeLoss="9.21" meanOccupancy="13.06" maxOccupancy="15.70" meanMaxJamLengthInVehicles="0.45" meanMaxJamLengthInMeters="3.04" maxJamLengthInVehicles="3" maxJamLengthInMeters="22.63" jamLengthInVehiclesSum="28" jamLengthInMetersSum="186.28" meanHaltingDuration="2.65" maxHaltingDuration="5.00" haltingDurationSum="45.00" meanIntervalHaltingDuration="2.65" maxIntervalHaltingDuration="5.00" intervalHaltingDurationSum="45.00" startedHalts="17.00" meanVehicleNumber="21.28" maxVehicleNumber="25" />
   <interval begin="540.00" end="600.00" id="mainline_up_1_2" sampledSeconds="1553.81" nVehEntered="39" nVehLeft="44" nVehSeen="67" meanSpeed="14.93" meanTimeLoss="7.36" meanOccupancy="16.13" maxOccupancy="18.84" meanMaxJamLengthInVehicles="0.00" meanMaxJamLengthInMeters="0.00" maxJamLengthInVehicles="0" maxJamLengthInMeters="0.00" jamLengthInVehiclesSum="0" jamLengthInMetersSum="0.00" meanHaltingDuration="0.00" maxHaltingDuration="0.00" haltingDurationSum="0.00" meanIntervalHaltingDuration="0.00" maxIntervalHaltingDuration="0.00" intervalHaltingDurationSum="0.00" startedHalts="0.00" meanVehicleNumber="26.42" maxVehicleNumber="31" />
   <interval begin="540.00" end="600.00" id="mainline_up_2_2" sampledSeconds="1426.68" nVehEntered="37" nVehLeft="39" nVehSeen="60" meanSpeed="19.37" meanTimeLoss="3.61" meanOccupancy="14.78" maxOccupancy="16.33" meanMaxJamLengthInVehicles="0.00" meanMaxJamLengthInMeters="0.00" maxJamLengthInVehicles="0" maxJamLengthInMeters="0.00" jamLengthInVehiclesSum="0" jamLengthInMetersSum="0.00" meanHaltingDuration="0.00" maxHaltingDuration="0.00" haltingDurationSum="0.00" meanIntervalHaltingDuration="0.00" maxIntervalHaltingDuration="0.00" intervalHaltingDurationSum="0.00" startedHalts="0.00" meanVehicleNumber="24.35" maxVehicleNumber="27" />
    <interval begin="600.00" end="660.00" id="ramp_eval_0_0" nVehContrib="14" flow="840.00" occupancy="12.44" speed="9.41" length="5.00" nVehEntered="14"/>
    <interval begin="600.00" end="660.00" id="ramp_eval_2_0" nVehContrib="26" flow="1560.00" occupancy="26.25" speed="8.29" length="5.00" nVehEntered="26"/>
   <interval begin="600.00" end="660.00" id="mainline_up_0_2" sampledSeconds="1060.35" nVehEntered="35" nVehLeft="32" nVehSeen="55" meanSpeed="12.98" meanTimeLoss="4.12" meanOccupancy="11.00" maxOccupancy="15.08" meanMaxJamLengthInVehicles="0.18" meanMaxJamLengthInMeters="1.11" maxJamLengthInVehicles="2" maxJamLengthInMeters="13.85" jamLengthInVehiclesSum="11" jamLengthInMetersSum="66.33" meanHaltingDuration="2.38" maxHaltingDuration="3.00" haltingDurationSum="19.00" meanIntervalHaltingDuration="2.38" maxIntervalHaltingDuration="3.00" intervalHaltingDurationSum="19.00" startedHalts="9.00" meanVehicleNumber="17.92" maxVehicleNumber="24" />
   <interval begin="600.00" end="660.00" id="mainline_up_1_2" sampledSeconds="1346.80" nVehEntered="57" nVehLeft="56" nVehSeen="80" meanSpeed="14.42" meanTimeLoss="2.90" meanOccupancy="13.99" maxOccupancy="16.33" meanMaxJamLengthInVehicles="0.00" meanMaxJamLengthInMeters="0.00" maxJamLengthInVehicles="0" maxJamLengthInMeters="0.00" jamLengthInVehiclesSum="0" jamLengthInMetersSum="0.00" meanHaltingDuration="0.00" maxHaltingDuration="0.00" haltingDurationSum="0.00" meanIntervalHaltingDuration="0.00" maxIntervalHaltingDuration="0.00" intervalHaltingDurationSum="0.00" startedHalts="0.00" meanVehicleNumber="22.92" maxVehicleNumber="26" />
   <interval begin="600.00" end="660.00" id="mainline_up_2_2" sampledSeconds="1286.09" nVehEntered="39" nVehLeft="38" nVehSeen="60" meanSpeed="15.69" meanTimeLoss="2.64" meanOccupancy="13.39" maxOccupancy="14.45" meanMaxJamLengthInVehicles="0.00" meanMaxJamLengthInMeters="0.00" maxJamLengthInVehicles="0" maxJamLengthInMeters="0.00" jamLengthInVehiclesSum="0" jamLengthInMetersSum="0.00" meanHaltingDuration="0.00" maxHaltingDuration="0.00" haltingDurationSum="0.00" meanIntervalHaltingDuration="0.00" maxIntervalHaltingDuration="0.00" intervalHaltingDurationSum="0.00" startedHalts="0.00" meanVehicleNumber="21.88" maxVehicleNumber="24" />
    <interval begin="660.00" end="720.00" id="ramp_eval_0_0" nVehContrib="23" flow="1380.00" occupancy="24.03" speed="8.18" length="5.00" nVehEntered="23"/>
    <interval begin="660.00" end="720.00" id="ramp_eval_2_0" nVehContrib="15" flow="900.00" occupancy="14.33" speed="9.31" length="5.00" nVehEntered="16"/>
   <interval begin="660.00" end="720.00" id="mainline_up_0_2" sampledSeconds="1268.27" nVehEntered="24" nVehLeft="25" nVehSeen="47" meanSpeed="13.27" meanTimeLoss="6.20" meanOccupancy="13.16" maxOccupancy="14.65" meanMaxJamLengthInVehicles="0.53" meanMaxJamLengthInMeters="3.71" maxJamLengthInVehicles="3" maxJamLengthInMeters="22.93" jamLengthInVehiclesSum="33" jamLengthInMetersSum="222.57" meanHaltingDuration="3.29" maxHaltingDuration="5.00" haltingDurationSum="46.00" meanIntervalHaltingDuration="3.29" maxIntervalHaltingDuration="5.00" intervalHaltingDurationSum="46.00" startedHalts="15.00" meanVehicleNumber="21.35" maxVehicleNumber="24" />
   <interval begin="660.00" end="720.00" id="mainline_up_1_2" sampledSeconds="1611.37" nVehEntered="45" nVehLeft="46" nVehSeen="69" meanSpeed="14.68" meanTimeLoss="4.01" meanOccupancy="16.73" maxOccupancy="18.84" meanMaxJamLengthInVehicles="0.00" meanMaxJamLengthInMeters="0.00" maxJamLengthInVehicles="0" maxJamLengthInMeters="0.00" jamLengthInVehiclesSum="0" jamLengthInMetersSum="0.00" meanHaltingDuration="0.00" maxHaltingDuration="0.00" haltingDurationSum="0.00" meanIntervalHaltingDuration="0.00" maxIntervalHaltingDuration="0.00" intervalHaltingDurationSum="0.00" startedHalts="0.00" meanVehicleNumber="27.33" maxVehicleNumber="30" />
   <interval begin="660.00" end="720.00" id="mainline_up_2_2" sampledSeconds="1597.38" nVehEntered="38" nVehLeft="32" nVehSeen="60" meanSpeed="15.07" meanTimeLoss="5.05" meanOccupancy="16.64" maxOccupancy="18.84" meanMaxJamLengthInVehicles="0.00" meanMaxJamLengthInMeters="0.00" maxJamLengthInVehicles="0" maxJamLengthInMeters="0.00" jamLengthInVehiclesSum="0" jamLengthInMetersSum="0.00" meanHaltingDuration="0.00" maxHaltingDuration="0.00" haltingDurationSum="0.00" meanIntervalHaltingDuration="0.00" maxIntervalHaltingDuration="0.00" intervalHaltingDurationSum="0.00" startedHalts="0.00" meanVehicleNumber="27.08" maxVehicleNumber="31" />
    <interval begin="720.00" end="780.00" id="ramp_eval_0_0" nVehContrib="18" flow="1080.00" occupancy="16.28" speed="9.33" length="5.00" nVehEntered="18"/>
    <interval begin="720.00" end="780.00" id="ramp_eval_2_0" nVehContrib="10" flow="600.00" occupancy="9.45" speed="8.37" length="5.00" nVehEntered="10"/>
   <interval begin="720.00" end="780.00" id="mainline_up_0_2" sampledSeconds="1380.51" nVehEntered="32" nVehLeft="30" nVehSeen="54" meanSpeed="11.80" meanTimeLoss="6.41" meanOccupancy="14.28" maxOccupancy="16.33" meanMaxJamLengthInVehicles="0.07" meanMaxJamLengthInMeters="0.40" maxJamLengthInVehicles="2" maxJamLengthInMeters="13.89" jamLengthInVehiclesSum="4" jamLengthInMetersSum="23.89" meanHaltingDuration="1.40" maxHaltingDuration="3.00" haltingDurationSum="14.00" meanIntervalHaltingDuration="1.30" maxIntervalHaltingDuration="3.00" intervalHaltingDurationSum="13.00" startedHalts="9.00" meanVehicleNumber="23.30" maxVehicleNumber="27" />
   <interval begin="720.00" end="780.00" id="mainline_up_1_2" sampledSeconds="1499.94" nVehEntered="47" nVehLeft="48" nVehSeen="70" meanSpeed="13.66" meanTimeLoss="3.73" meanOccupancy="15.57" maxOccupancy="17.95" meanMaxJamLengthInVehicles="0.00" meanMaxJamLengthInMeters="0.00" maxJamLengthInVehicles="0" maxJamLengthInMeters="0.00" jamLengthInVehiclesSum="0" jamLengthInMetersSum="0.00" meanHaltingDuration="0.00" maxHaltingDuration="0.00" haltingDurationSum="0.00" meanIntervalHaltingDuration="0.00" maxIntervalHaltingDuration="0.00" intervalHaltingDurationSum="0.00" startedHalts="0.00" meanVehicleNumber="25.40" maxVehicleNumber="30" />