<?xml version="1.0" encoding="UTF-8"?>

<!-- generated on 01/10/19 23:17:44 by Eclipse SUMO GUI Version 1.0.1
<configuration xmlns:xsi="http://www.w3.org/2001/XMLSchema-instance" xsi:noNamespaceSchemaLocation="http://sumo.dlr.de/xsd/sumoConfiguration.xsd">

    <input>
        <net-file value="./Project/ramp.net.xml"/>
        <route-files value="./Project/ramp.rou.xml"/>
        <additional-files value="./Project/ramp.add.xml"/>
    </input>

    <time>
        <begin value="0"/>
    </time>

    <report>
        <verbose value="true"/>
        <no-step-log value="true"/>
    </report>

    <traci_server>
        <remote-port value="58425"/>
    </traci_server>

    <random_number>
        <seed value="42"/>
    </random_number>

    <gui_only>
        <quit-on-end value="true"/>
        <start value="true"/>
    </gui_only>

</configuration>
-->

<detector xmlns:xsi="http://www.w3.org/2001/XMLSchema-instance" xsi:noNamespaceSchemaLocation="http://sumo.dlr.de/xsd/det_e1_file.xsd">
    <interval begin="0.00" end="60.00" id="ramp_eval_0_0" nVehContrib="1" flow="60.00" occupancy="1.44" speed="10.14" length="5.00" nVehEntered="2"/>
    <interval begin="0.00" end="60.00" id="ramp_eval_2_0" nVehContrib="0" flow="0.00" occupancy="0.00" speed="-1.00" length="-1.00" nVehEntered="0"/>
   <interval begin="0.00" end="60.00" id="ramp_eval_1_0" sampledSeconds="165.93" nVehEntered="8" nVehLeft="0" nVehSeen="8" meanSpeed="10.32" meanTimeLoss="1.68" meanOccupancy="1.18" maxOccupancy="3.39" meanMaxJamLengthInVehicles="0.00" meanMaxJamLengthInMeters="0.00" maxJamLengthInVehicles="0" maxJamLengthInMeters="0.00" jamLengthInVehiclesSum="0" jamLengthInMetersSum="0.00" meanHaltingDuration="0.00" maxHaltingDuration="0.00" haltingDurationSum="0.00" meanIntervalHaltingDuration="0.00" maxIntervalHaltingDuration="0.00" intervalHaltingDurationSum="0.00" startedHalts="0.00" meanVehicleNumber="2.83" maxVehicleNumber="8" />
    <interval begin="60.00" end="120.00" id="ramp_eval_0_0" nVehContrib="12" flow="720.00" occupancy="10.14" speed="9.34" length="5.00" nVehEntered="11"/>
    <interval begin="60.00" end="120.00" id="ramp_eval_2_0" nVehContrib="0" flow="0.00" occupancy="0.00" speed="-1.00" length="-1.00" nVehEntered="0"/>
   <interval begin="60.00" end="120.00" id="ramp_eval_1_0" sampledSeconds="815.21" nVehEntered="12" nVehLeft="0" nVehSeen="20" meanSpeed="9.55" meanTimeLoss="5.59" meanOccupancy="5.78" maxOccupancy="8.47" meanMaxJamLengthInVehicles="0.00" meanMaxJamLengthInMeters="0.00" maxJamLengthInVehicles="0" maxJamLengthInMeters="0.00" jamLengthInVehiclesSum="0" jamLengthInMetersSum="0.00" meanHaltingDuration="0.00" maxHaltingDuration="0.00" haltingDurationSum="0.00" meanIntervalHaltingDuration="0.00" maxIntervalHaltingDuration="0.00" intervalHaltingDurationSum="0.00" startedHalts="0.00" meanVehicleNumber="13.67" maxVehicleNumber="20" />
    <interval begin="120.00" end="180.00" id="ramp_eval_0_0" nVehContrib="13" flow="780.00" occupancy="10.54" speed="10.37" length="5.00" nVehEntered="13"/>
    <interval begin="120.00" end="180.00" id="ramp_eval_2_0" nVehContrib="9" flow="540.00" occupancy="7.97" speed="9.43" length="5.00" nVehEntered="9"/>
   <interval begin="120.00" end="180.00" id="ramp_eval_1_0" sampledSeconds="1369.70" nVehEntered="11" nVehLeft="6" nVehSeen="31" meanSpeed="9.84" meanTimeLoss="5.52" meanOccupancy="9.66" maxOccupancy="10.59" meanMaxJamLengthInVehicles="0.00" meanMaxJamLengthInMeters="0.00" maxJamLengthInVehicles="0" maxJamLengthInMeters="0.00" jamLengthInVehiclesSum="0" jamLengthInMetersSum="0.00" meanHaltingDuration="0.00" maxHaltingDuration="0.00" haltingDurationSum="0.00" meanIntervalHaltingDuration="0.00" maxIntervalHaltingDuration="0.00" intervalHaltingDurationSum="0.00" startedHalts="0.00" meanVehicleNumber="22.95" maxVehicleNumber="25" />
    <interval begin="180.00" end="240.00" id="ramp_eval_0_0" nVehContrib="12" flow="720.00" occupancy="9.34" speed="10.73" length="5.00" nVehEntered="12"/>
    <interval begin="180.00" end="240.00" id="ramp_eval_2_0" nVehContrib="13" flow="780.00" occupancy="12.22" speed="8.87" length="5.00" nVehEntered="13"/>
   <interval begin="180.00" end="240.00" id="ramp_eval_1_0" sampledSeconds="1527.78" nVehEntered="11" nVehLeft="10" nVehSeen="36" meanSpeed="9.32" meanTimeLoss="7.50" meanOccupancy="10.69" maxOccupancy="11.86" meanMaxJamLengthInVehicles="0.95" meanMaxJamLengthInMeters="6.62" maxJamLengthInVehicles="6" maxJamLengthInMeters="43.43" jamLengthInVehiclesSum="57" jamLengthInMetersSum="397.20" meanHaltingDuration="10.50" maxHaltingDuration="13.00" haltingDurationSum="63.00" meanIntervalHaltingDuration="10.50" maxIntervalHaltingDuration="13.00" intervalHaltingDurationSum="63.00" startedHalts="6.00" meanVehicleNumber="25.67" maxVehicleNumber="28" />
    <interval begin="240.00" end="300.00" id="ramp_eval_0_0" nVehContrib="9" flow="540.00" occupancy="7.96" speed="9.51" length="5.00" nVehEntered="9"/>
    <interval begin="240.00" end="300.00" id="ramp_eval_2_0" nVehContrib="14" flow="840.00" occupancy="11.88" speed="9.89" length="5.00" nVehEntered="14"/>
   <interval begin="240.00" end="300.00" id="ramp_eval_1_0" sampledSeconds="1429.62" nVehEntered="12" nVehLeft="14" nVehSeen="38" meanSpeed="9.44" meanTimeLoss="6.23" meanOccupancy="9.98" maxOccupancy="11.02" meanMaxJamLengthInVehicles="0.62" meanMaxJamLengthInMeters="3.66" maxJamLengthInVehicles="5" maxJamLengthInMeters="36.01" jamLengthInVehiclesSum="37" jamLengthInMetersSum="219.59" meanHaltingDuration="11.44" maxHaltingDuration="14.00" haltingDurationSum="103.00" meanIntervalHaltingDuration="4.44" maxIntervalHaltingDuration="11.00" intervalHaltingDurationSum="40.00" startedHalts="3.00" meanVehicleNumber="24.10" maxVehicleNumber="27" />
    <interval begin="300.00" end="360.00" id="ramp_eval_0_0" nVehContrib="13" flow="780.00" occupancy="11.26" speed="9.69" length="5.00" nVehEntered="13"/>
    <interval begin="300.00" end="360.00" id="ramp_eval_2_0" nVehContrib="10" flow="600.00" occupancy="9.18" speed="9.12" length="5.00" nVehEntered="10"/>
   <interval begin="300.00" end="360.00" id="ramp_eval_1_0" sampledSeconds="1436.01" nVehEntered="12" nVehLeft="8" nVehSeen="36" meanSpeed="9.32" meanTimeLoss="6.40" meanOccupancy="10.10" maxOccupancy="11.86" meanMaxJamLengthInVehicles="0.10" meanMaxJamLengthInMeters="0.65" maxJamLengthInVehicles="3" maxJamLengthInMeters="21.02" jamLengthInVehiclesSum="6" jamLengthInMetersSum="39.06" meanHaltingDuration="5.60" maxHaltingDuration="12.00" haltingDurationSum="28.00" meanIntervalHaltingDuration="1.60" maxIntervalHaltingDuration="3.00" intervalHaltingDurationSum="8.00" startedHalts="2.00" meanVehicleNumber="24.07" maxVehicleNumber="28" />
    <interval begin="360.00" end="420.00" id="ramp_eval_0_0" nVehContrib="13" flow="780.00" occupancy="10.97" speed="9.96" length="5.00" nVehEntered="13"/>
    <interval begin="360.00" end="420.00" id="ramp_eval_2_0" nVehContrib="10" flow="600.00" occupancy="9.40" speed="8.87" length="5.00" nVehEntered="10"/>
   <interval begin="360.00" end="420.00" id="ramp_eval_1_0" sampledSeconds="1560.80" nVehEntered="12" nVehLeft="12" nVehSeen="40" meanSpeed="9.18" meanTimeLoss="6.17" meanOccupancy="10.95" maxOccupancy="11.81" meanMaxJamLengthInVehicles="0.20" meanMaxJamLengthInMeters="0.99" maxJamLengthInVehicles="2" maxJamLengthInMeters="14.01" jamLengthInVehiclesSum="12" jamLengthInMetersSum="59.48" meanHaltingDuration="2.20" maxHaltingDuration="3.00" haltingDurationSum="22.00" meanIntervalHaltingDuration="2.10" maxIntervalHaltingDuration="3.00" intervalHaltingDurationSum="21.00" startedHalts="9.00" meanVehicleNumber="26.20" maxVehicleNumber="28" />
    <interval begin="420.00" end="480.00" id="ramp_eval_0_0" nVehContrib="11" flow="660.00" occupancy="10.13" speed="9.20" length="5.00" nVehEntered="11"/>
    <interval begin="420.00" end="480.00" id="ramp_eval_2_0" nVehContrib="11" flow="660.00" occupancy="9.72" speed="9.46" length="5.00" nVehEntered="11"/>
   <interval begin="420.00" end="480.00" id="ramp_eval_1_0" sampledSeconds="1451.66" nVehEntered="12" nVehLeft="15" nVehSeen="40" meanSpeed="9.16" meanTimeLoss="6.01" meanOccupancy="10.13" maxOccupancy="11.45" meanMaxJamLengthInVehicles="0.17" meanMaxJamLengthInMeters="0.25" maxJamLengthInVehicles="1" maxJamLengthInMeters="1.62" jamLengthInVehiclesSum="10" jamLengthInMetersSum="15.26" meanHaltingDuration="6.00" maxHaltingDuration="11.00" haltingDurationSum="12.00" meanIntervalHaltingDuration="5.50" maxIntervalHaltingDuration="11.00" intervalHaltingDurationSum="11.00" startedHalts="1.00" meanVehicleNumber="24.43" maxVehicleNumber="28" />
    <interval begin="480.00" end="540.00" id="ramp_eval_0_0" nVehContrib="10" flow="600.00" occupancy="8.26" speed="10.15" length="5.00" nVehEntered="10"/>
    <interval begin="480.00" end="540.00" id="ramp_eval_2_0" nVehContrib="8" flow="480.00" occupancy="7.37" speed="9.08" length="5.00" nVehEntered="8"/>
   <interval begin="480.00" end="540.00" id="ramp_eval_1_0" sampledSeconds="1451.10" nVehEntered="11" nVehLeft="10" nVehSeen="36" meanSpeed="9.25" meanTimeLoss="6.86" meanOccupancy="10.21" maxOccupancy="11.44" meanMaxJamLengthInVehicles="0.02" meanMaxJamLengthInMeters="0.00" maxJamLengthInVehicles="1" maxJamLengthInMeters="0.13" jamLengthInVehiclesSum="1" jamLengthInMetersSum="0.13" meanHaltingDuration="12.00" maxHaltingDuration="12.00" haltingDurationSum="12.00" meanIntervalHaltingDuration="1.00" maxIntervalHaltingDuration="1.00" intervalHaltingDurationSum="1.00" startedHalts="0.00" meanVehicleNumber="24.33" maxVehicleNumber="27" />
    <interval begin="540.00" end="600.00" id="ramp_eval_0_0" nVehContrib="11" flow="660.00" occupancy="9.98" speed="9.20" length="5.00" nVehEntered="11"/>
    <interval begin="540.00" end="600.00" id="ramp_eval_2_0" nVehContrib="17" flow="1020.00" occupancy="16.48" speed="8.65" length="5.00" nVehEntered="17"/>
   <interval begin="540.00" end="600.00" id="ramp_eval_1_0" sampledSeconds="1565.46" nVehEntered="12" nVehLeft="11" nVehSeen="38" meanSpeed="8.88" meanTimeLoss="7.82" meanOccupancy="10.96" maxOccupancy="12.71" meanMaxJamLengthInVehicles="0.50" meanMaxJamLengthInMeters="3.22" maxJamLengthInVehicles="4" maxJamLengthInMeters="28.24" jamLengthInVehiclesSum="30" jamLengthInMetersSum="192.94" meanHaltingDuration="7.00" maxHaltingDuration="15.00" haltingDurationSum="35.00" meanIntervalHaltingDuration="7.00" maxIntervalHaltingDuration="15.00" intervalHaltingDurationSum="35.00" startedHalts="5.00" meanVehicleNumber="26.25" maxVehicleNumber="30" />
    <interval begin="600.00" end="660.00" id="ramp_eval_0_0" nVehContrib="14" flow="840.00" occupancy="12.91" speed="9.13" length="5.00" nVehEntered="14"/>
    <interval begin="600.00" end="660.00" id="ramp_eval_2_0" nVehContrib="9" flow="540.00" occupancy="8.17" speed="9.33" length="5.00" nVehEntered="10"/>
   <interval begin="600.00" end="660.00" id="ramp_eval_1_0" sampledSeconds="1511.54" nVehEntered="10" nVehLeft="11" nVehSeen="37" meanSpeed="8.70" meanTimeLoss="7.35" meanOccupancy="10.55" maxOccupancy="11.03" meanMaxJamLengthInVehicles="0.45" meanMaxJamLengthInMeters="2.25" maxJamLengthInVehicles="4" maxJamLengthInMeters="29.44" jamLengthInVehiclesSum="27" jamLengthInMetersSum="135.02" meanHaltingDuration="7.71" maxHaltingDuration="17.00" haltingDurationSum="54.00" meanIntervalHaltingDuration="4.29" maxIntervalHaltingDuration="11.00" intervalHaltingDurationSum="30.00" startedHalts="3.00" meanVehicleNumber="25.35" maxVehicleNumber="27" />
    <interval begin="660.00" end="720.00" id="ramp_eval_0_0" nVehContrib="11" flow="660.00" occupancy="9.91" speed="9.28" length="5.00" nVehEntered="11"/>
    <interval begin="660.00" end="720.00" id="ramp_eval_2_0" nVehContrib="7" flow="420.00" occupancy="6.47" speed="8.90" length="5.00" nVehEntered="6"/>
   <interval begin="660.00" end="720.00" id="ramp_eval_1_0" sampledSeconds="1613.48" nVehEntered="14" nVehLeft="9" nVehSeen="40" meanSpeed="8.52" meanTimeLoss="8.08" meanOccupancy="11.28" maxOccupancy="12.84" meanMaxJamLengthInVehicles="0.37" meanMaxJamLengthInMeters="2.14" maxJamLengthInVehicles="2" maxJamLengthInMeters="12.59" jamLengthInVehiclesSum="22" jamLengthInMetersSum="128.34" meanHaltingDuration="11.67" maxHaltingDuration="13.00" haltingDurationSum="35.00" meanIntervalHaltingDuration="8.00" maxIntervalHaltingDuration="13.00" intervalHaltingDurationSum="24.00" startedHalts="2.00" meanVehicleNumber="27.12" maxVehicleNumber="31" />
    <interval begin="720.00" end="780.00" id="ramp_eval_0_0" nVehContrib="12" flow="720.00" occupancy="9.85" speed="10.19" length="5.00" nVehEntered="12"/>
    <interval begin="720.00" end="780.00" id="ramp_eval_2_0" nVehContrib="15" flow="900.00" occupancy="15.70" speed="8.00" length="5.00" nVehEntered="15"/>
   <interval begin="720.00" end="780.00" id="ramp_eval_1_0" sampledSeconds="1637.63" nVehEntered="11" nVehLeft="15" nVehSeen="42" meanSpeed="9.14" meanTimeLoss="6.30" meanOccupancy="11.49" maxOccupancy="13.14" meanMaxJamLengthInVehicles="0.05" meanMaxJamLengthInMeters="0.30" maxJamLengthInVehicles="2" maxJamLengthInMeters="13.26" jamLengthInVehiclesSum="3" jamLengthInMetersSum="18.26" meanHaltingDuration="13.50" maxHaltingDuration="14.00" haltingDurationSum="27.00" meanIntervalHaltingDuration="1.50" maxIntervalHaltingDuration="2.00" intervalHaltingDurationSum="3.00" startedHalts="0.00" meanVehicleNumber="27.47" maxVehicleNumber="32" />
    <interval begin="780.00" end="840.00" id="ramp_eval_0_0" nVehContrib="10" flow="600.00" occupancy="8.44" speed="9.89" length="5.00" nVehEntered="10"/>
    <interval begin="780.00" end="840.00" id="ramp_eval_2_0" nVehContrib="17" flow="1020.00" occupancy="15.55" speed="9.14" length="5.00" nVehEntered="17"/>
   <interval begin="780.00" end="840.00" id="ramp_eval_1_0" sampledSeconds="1534.07" nVehEntered="12" nVehLeft="12" nVehSeen="39" meanSpeed="9.47" meanTimeLoss="5.40" meanOccupancy="10.74" maxOccupancy="11.44" meanMaxJamLengthInVehicles="0.40" meanMaxJamLengthInMeters="2.68" maxJamLengthInVehicles="6" maxJamLengthInMeters="43.13" jamLengthInVehiclesSum="24" jamLengthInMetersSum="161.07" meanHaltingDuration="5.00" maxHaltingDuration="8.00" haltingDurationSum="30.00" meanIntervalHaltingDuration="5.00" maxIntervalHaltingDuration="8.00" intervalHaltingDurationSum="30.00" startedHalts="6.00" meanVehicleNumber="25.80" maxVehicleNumber="27" />
    <interval begin="840.00" end="900.00" id="ramp_eval_0_0" nVehContrib="13" flow="780.00" occupancy="12.09" speed="9.61" length="5.00" nVehEntered="14"/>
    <interval begin="840.00" end="900.00" id="ramp_eval_2_0" nVehContrib="10" flow="600.00" occupancy="8.36" speed="9.98" length="5.00" nVehEntered="10"/>
   <interval begin="840.00" end="900.00" id="ramp_eval_1_0" sampledSeconds="1414.84" nVehEntered="11" nVehLeft="13" nVehSeen="38" meanSpeed="9.23" meanTimeLoss="5.89" meanOccupancy="9.89" maxOccupancy="11.35" meanMaxJamLengthInVehicles="0.50" meanMaxJamLengthInMeters="3.27" maxJamLengthInVehicles="5" maxJamLengthInMeters="36.48" jamLengthInVehiclesSum="30" jamLengthInMetersSum="196.15" meanHaltingDuration="7.00" maxHaltingDuration="9.00" haltingDurationSum="63.00" meanIntervalHaltingDuration="3.67" maxIntervalHaltingDuration="6.00" intervalHaltingDurationSum="33.00" startedHalts="3.00" meanVehicleNumber="23.77" maxVehicleNumber="27" />
    <interval begin="900.00" end="960.00" id="ramp_eval_0_0" nVehContrib="13" flow="780.00" occupancy="9.97" speed="10.20" length="5.00" nVehEntered="12"/>
    <interval begin="900.00" end="960.00" id="ramp_eval_2_0" nVehContrib="11" flow="660.00" occupancy="10.74" speed="8.58" length="5.00" nVehEntered="11"/>
   <interval begin="900.00" end="960.00" id="ramp_eval_1_0" sampledSeconds="1581.98" nVehEntered="12" nVehLeft="6" nVehSeen="37" meanSpeed="9.20" meanTimeLoss="7.52" meanOccupancy="11.10" maxOccupancy="12.84" meanMaxJamLengthInVehicles="0.77" meanMaxJamLengthInMeters="5.32" maxJamLengthInVehicles="8" maxJamLengthInMeters="58.18" jamLengthInVehiclesSum="46" jamLengthInMetersSum="319.27" meanHaltingDuration="6.00" maxHaltingDuration="10.00" haltingDurationSum="66.00" meanIntervalHaltingDuration="5.00" maxIntervalHaltingDuration="10.00" intervalHaltingDurationSum="55.00" startedHalts="9.00" meanVehicleNumber="26.53" maxVehicleNumber="31" />
    <interval begin="960.00" end="1020.00" id="ramp_eval_0_0" nVehContrib="11" flow="660.00" occupancy="9.17" speed="10.07" length="5.00" nVehEntered="11"/>
    <interval begin="960.00" end="1020.00" id="ramp_eval_2_0" nVehContrib="13" flow="780.00" occupancy="10.96" speed="9.90" length="5.00" nVehEntered="13"/>
   <interval begin="960.00" end="1020.00" id="ramp_eval_1_0" sampledSeconds="1572.60" nVehEntered="12" nVehLeft="16" nVehSeen="43" meanSpeed="9.02" meanTimeLoss="7.15" meanOccupancy="10.99" maxOccupancy="13.14" meanMaxJamLengthInVehicles="1.58" meanMaxJamLengthInMeters="11.08" maxJamLengthInVehicles="9" maxJamLengthInMeters="67.65" jamLengthInVehiclesSum="95" jamLengthInMetersSum="664.80" meanHaltingDuration="9.12" maxHaltingDuration="13.00" haltingDurationSum="155.00" meanIntervalHaltingDuration="6.06" maxIntervalHaltingDuration="11.00" intervalHaltingDurationSum="103.00" startedHalts="8.00" meanVehicleNumber="26.48" maxVehicleNumber="32" />
    <interval begin="1020.00" end="1080.00" id="ramp_eval_0_0" nVehContrib="12" flow="720.00" occupancy="10.30" speed="9.76" length="5.00" nVehEntered="12"/>
    <interval begin="1020.00" end="1080.00" id="ramp_eval_2_0" nVehContrib="11" flow="660.00" occupancy="9.22" speed="9.95" length="5.00" nVehEntered="11"/>
   <interval begin="1020.00" end="1080.00" id="ramp_eval_1_0" sampledSeconds="1390.69" nVehEntered="12" nVehLeft="14" nVehSeen="39" meanSpeed="9.43" meanTimeLoss="5.25" meanOccupancy="9.76" maxOccupancy="11.03" meanMaxJamLengthInVehicles="0.33" meanMaxJamLengthInMeters="2.29" maxJamLengthInVehicles="5" maxJamLengthInMeters="36.37" jamLengthInVehiclesSum="20" jamLengthInMetersSum="137.41" meanHaltingDuration="9.33" maxHaltingDuration="11.00" haltingDurationSum="56.00" meanIntervalHaltingDuration="3.50" maxIntervalHaltingDuration="6.00" intervalHaltingDurationSum="21.00" startedHalts="1.00" meanVehicleNumber="23.40" maxVehicleNumber="27" />
    <interval begin="1080.00" end="1140.00" id="ramp_eval_0_0" nVehContrib="10" flow="600.00" occupancy="8.34" speed="10.02" length="5.00" nVehEntered="10"/>
    <interval begin="1080.00" end="1140.00" id="ramp_eval_2_0" nVehContrib="10" flow="600.00" occupancy="9.03" speed="9.23" length="5.00" nVehEntered="10"/>
   <interval begin="1080.00" end="1140.00" id="ramp_eval_1_0" sampledSeconds="1493.70" nVehEntered="10" nVehLeft="8" nVehSeen="35" meanSpeed="9.39" meanTimeLoss="6.45" meanOccupancy="10.46" maxOccupancy="11.15" meanMaxJamLengthInVehicles="0.60" meanMaxJamLengthInMeters="3.84" maxJamLengthInVehicles="5" maxJamLengthInMeters="35.02" jamLengthInVehiclesSum="36" jamLengthInMetersSum="230.64" meanHaltingDuration="7.00" maxHaltingDuration="14.00" haltingDurationSum="42.00" meanIntervalHaltingDuration="7.00" maxIntervalHaltingDuration="14.00" intervalHaltingDurationSum="42.00" startedHalts="6.00" meanVehicleNumber="25.07" maxVehicleNumber="27" />
    <interval begin="1140.00" end="1200.00" id="ramp_eval_0_0" nVehContrib="13" flow="780.00" occupancy="12.93" speed="8.97" length="5.00" nVehEntered="14"/>
    <interval begin="1140.00" end="1200.00" id="ramp_eval_2_0" nVehContrib="15" flow="900.00" occupancy="13.14" speed="9.57" length="5.00" nVehEntered="15"/>
   <interval begin="1140.00" end="1200.00" id="ramp_eval_1_0" sampledSeconds="1441.44" nVehEntered="13" nVehLeft="14" nVehSeen="40" meanSpeed="9.28" meanTimeLoss="4.90" meanOccupancy="10.08" maxOccupancy="11.36" meanMaxJamLengthInVehicles="0.43" meanMaxJamLengthInMeters="2.86" maxJamLengthInVehicles="5" maxJamLengthInMeters="36.18" jamLengthInVehiclesSum="26" jamLengthInMetersSum="171.36" meanHaltingDuration="8.75" maxHaltingDuration="15.00" haltingDurationSum="70.00" meanIntervalHaltingDuration="3.63" maxIntervalHaltingDuration="6.00" intervalHaltingDurationSum="29.00" startedHalts="3.00" meanVehicleNumber="24.20" maxVehicleNumber="27" />
    <interval begin="1200.00" end="1260.00" id="ramp_eval_0_0" nVehContrib="11" flow="660.00" occupancy="8.45" speed="10.13" length="5.00" nVehEntered="10"/>
    <interval begin="1200.00" end="1260.00" id="ramp_eval_2_0" nVehContrib="7" flow="420.00" occupancy="5.94" speed="9.84" length="5.00" nVehEntered="7"/>
   <interval begin="1200.00" end="1260.00" id="ramp_eval_1_0" sampledSeconds="1463.02" nVehEntered="11" nVehLeft="10" nVehSeen="37" meanSpeed="8.90" meanTimeLoss="6.67" meanOccupancy="10.24" maxOccupancy="11.15" meanMaxJamLengthInVehicles="0.30" meanMaxJamLengthInMeters="1.63" maxJamLengthInVehicles="3" maxJamLengthInMeters="20.02" jamLengthInVehiclesSum="18" jamLengthInMetersSum="97.91" meanHaltingDuration="5.50" maxHaltingDuration="8.00" haltingDurationSum="33.00" meanIntervalHaltingDuration="3.50" maxIntervalHaltingDuration="8.00" intervalHaltingDurationSum="21.00" startedHalts="3.00" meanVehicleNumber="24.55" maxVehicleNumber="27" />
    <interval begin="1260.00" end="1320.00" id="ramp_eval_0_0" nVehContrib="11" flow="660.00" occupancy="9.24" speed="10.00" length="5.00" nVehEntered="11"/>
    <interval begin="1260.00" end="1320.00" id="ramp_eval_2_0" nVehContrib="16" flow="960.00" occupancy="16.08" speed="8.38" length="5.00" nVehEntered="16"/>
   <interval begin="1260.00" end="1320.00" id="ramp_eval_1_0" sampledSeconds="1670.40" nVehEntered="11" nVehLeft="9" nVehSeen="38" meanSpeed="8.73" meanTimeLoss="9.19" meanOccupancy="11.69" maxOccupancy="12.71" meanMaxJamLengthInVehicles="1.22" meanMaxJamLengthInMeters="8.53" maxJamLengthInVehicles="9" maxJamLengthInMeters="65.71" jamLengthInVehiclesSum="73" jamLengthInMetersSum="511.93" meanHaltingDuration="8.08" maxHaltingDuration="13.00" haltingDurationSum="97.00" meanIntervalHaltingDuration="6.83" maxIntervalHaltingDuration="13.00" intervalHaltingDurationSum="82.00" startedHalts="9.00" meanVehicleNumber="28.02" maxVehicleNumber="30" />
    <interval begin="1320.00" end="1380.00" id="ramp_eval_0_0" nVehContrib="12" flow="720.00" occupancy="10.10" speed="10.01" length="5.00" nVehEntered="13"/>
    <interval begin="1320.00" end="1380.00" id="ramp_eval_2_0" nVehContrib="9" flow="540.00" occupancy="8.17" speed="9.19" length="5.00" nVehEntered="9"/>
   <interval begin="1320.00" end="1380.00" id="ramp_eval_1_0" sampledSeconds="1541.04" nVehEntered="13" nVehLeft="15" nVehSeen="42" meanSpeed="8.83" meanTimeLoss="7.74" meanOccupancy="10.76" maxOccupancy="12.29" meanMaxJamLengthInVehicles="1.55" meanMaxJamLengthInMeters="10.92" maxJamLengthInVehicles="9" maxJamLengthInMeters="66.22" jamLengthInVehiclesSum="93" jamLengthInMetersSum="655.34" meanHaltingDuration="12.29" maxHaltingDuration="15.00" haltingDurationSum="172.00" meanIntervalHaltingDuration="7.00" maxIntervalHaltingDuration="12.00" intervalHaltingDurationSum="98.00" startedHalts="5.00" meanVehicleNumber="25.92" maxVehicleNumber="30" />
    <interval begin="1380.00" end="1440.00" id="ramp_eval_0_0" nVehContrib="12" flow="720.00" occupancy="11.35" speed="8.90" length="5.00" nVehEntered="11"/>
    <interval begin="1380.00" end="1440.00" id="ramp_eval_2_0" nVehContrib="15" flow="900.00" occupancy="14.35" speed="8.73" length="5.00" nVehEntered="15"/>
   <interval begin="1380.00" end="1440.00" id="ramp_eval_1_0" sampledSeconds="1539.18" nVehEntered="11" nVehLeft="9" nVehSeen="38" meanSpeed="8.92" meanTimeLoss="7.26" meanOccupancy="10.80" maxOccupancy="11.99" meanMaxJamLengthInVehicles="0.40" meanMaxJamLengthInMeters="2.58" maxJamLengthInVehicles="4" maxJamLengthInMeters="28.47" jamLengthInVehiclesSum="24" jamLengthInMetersSum="154.50" meanHaltingDuration="6.78" maxHaltingDuration="11.00" haltingDurationSum="61.00" meanIntervalHaltingDuration="3.22" maxIntervalHaltingDuration="6.00" intervalHaltingDurationSum="29.00" startedHalts="5.00" meanVehicleNumber="25.82" maxVehicleNumber="29" />
    <interval begin="1440.00" end="1500.00" id="ramp_eval_0_0" nVehContrib="13" flow="780.00" occupancy="12.06" speed="9.09" length="5.00" nVehEntered="13"/>
    <interval begin="1440.00" end="1500.00" id="ramp_eval_2_0" nVehContrib="8" flow="480.00" occupancy="7.63" speed="8.77" length="5.00" nVehEntered="8"/>
   <interval begin="1440.00" end="1500.00" id="ramp_eval_1_0" sampledSeconds="1525.45" nVehEntered="12" nVehLeft="13" nVehSeen="41" meanSpeed="8.36" meanTimeLoss="7.48" meanOccupancy="10.72" maxOccupancy="12.10" meanMaxJamLengthInVehicles="0.92" meanMaxJamLengthInMeters="6.66" maxJamLengthInVehicles="6" maxJamLengthInMeters="45.93" jamLengthInVehiclesSum="55" jamLengthInMetersSum="399.57" meanHaltingDuration="7.18" maxHaltingDuration="9.00" haltingDurationSum="79.00" meanIntervalHaltingDuration="5.54" maxIntervalHaltingDuration="9.00" intervalHaltingDurationSum="61.00" startedHalts="6.00" meanVehicleNumber="25.60" maxVehicleNumber="29" />
    <interval begin="1500.00" end="1560.00" id="ramp_eval_0_0" nVehContrib="11" flow="660.00" occupancy="8.84" speed="10.43" length="5.00" nVehEntered="11"/>
    <interval begin="1500.00" end="1560.00" id="ramp_eval_2_0" nVehContrib="8" flow="480.00" occupancy="7.86" speed="8.51" length="5.00" nVehEntered="8"/>
   <interval begin="1500.00" end="1560.00" id="ramp_eval_1_0" sampledSeconds="1606.73" nVehEntered="12" nVehLeft="10" nVehSeen="40" meanSpeed="9.28" meanTimeLoss="5.42" meanOccupancy="11.31" maxOccupancy="12.34" meanMaxJamLengthInVehicles="0.00" meanMaxJamLengthInMeters="0.00" maxJamLengthInVehicles="0" maxJamLengthInMeters="0.00" jamLengthInVehiclesSum="0" jamLengthInMetersSum="0.00" meanHaltingDuration="0.00" maxHaltingDuration="0.00" haltingDurationSum="0.00" meanIntervalHaltingDuration="0.00" maxIntervalHaltingDuration="0.00" intervalHaltingDurationSum="0.00" startedHalts="0.00" meanVehicleNumber="26.97" maxVehicleNumber="30" />
    <interval begin="1560.00" end="1620.00" id="ramp_eval_0_0" nVehContrib="9" flow="540.00" occupancy="7.22" speed="10.44" length="5.00" nVehEntered="9"/>
    <interval begin="1560.00" end="1620.00" id="ramp_eval_2_0" nVehContrib="19" flow="1140.00" occupancy="18.52" speed="8.93" length="5.00" nVehEntered="20"/>
   <interval begin="1560.00" end="1620.00" id="ramp_eval_1_0" sampledSeconds="1579.94" nVehEntered="11" nVehLeft="14" nVehSeen="41" meanSpeed="9.46" meanTimeLoss="5.65" meanOccupancy="11.05" maxOccupancy="13.14" meanMaxJamLengthInVehicles="0.53" meanMaxJamLengthInMeters="3.60" maxJamLengthInVehicles="5" maxJamLengthInMeters="35.30" jamLengthInVehiclesSum="32" jamLengthInMetersSum="215.79" meanHaltingDuration="7.40" maxHaltingDuration="10.00" haltingDurationSum="37.00" meanIntervalHaltingDuration="7.40" maxIntervalHaltingDuration="10.00" intervalHaltingDurationSum="37.00" startedHalts="5.00" meanVehicleNumber="26.52" maxVehicleNumber="32" />
    <interval begin="1620.00" end="1680.00" id="ramp_eval_0_0" nVehContrib="14" flow="840.00" occupancy="12.37" speed="9.51" length="5.00" nVehEntered="14"/>
    <interval begin="1620.00" end="1680.00" id="ramp_eval_2_0" nVehContrib="8" flow="480.00" occupancy="5.69" speed="10.60" length="5.00" nVehEntered="7"/>
   <interval begin="1620.00" end="1680.00" id="ramp_eval_1_0" sampledSeconds="1382.80" nVehEntered="12" nVehLeft="14" nVehSeen="39" meanSpeed="8.93" meanTimeLoss="6.55" meanOccupancy="9.63" maxOccupancy="11.05" meanMaxJamLengthInVehicles="0.90" meanMaxJamLengthInMeters="5.94" maxJamLengthInVehicles="5" maxJamLengthInMeters="36.20" jamLengthInVehiclesSum="54" jamLengthInMetersSum="356.24" meanHaltingDuration="8.82" maxHaltingDuration="13.00" haltingDurationSum="97.00" meanIntervalHaltingDuration="5.45" maxIntervalHaltingDuration="13.00" intervalHaltingDurationSum="60.00" startedHalts="6.00" meanVehicleNumber="23.25" maxVehicleNumber="27" />
    <interval begin="1680.00" end="1740.00" id="ramp_eval_0_0" nVehContrib="11" flow="660.00" occupancy="10.87" speed="9.27" length="5.00" nVehEntered="12"/>
    <interval begin="1680.00" end="1740.00" id="ramp_eval_2_0" nVehContrib="11" flow="660.00" occupancy="11.19" speed="8.28" length="5.00" nVehEntered="11"/>
   <interval begin="1680.00" end="1740.00" id="ramp_eval_1_0" sampledSeconds="1598.47" nVehEntered="12" nVehLeft="5" nVehSeen="37" meanSpeed="8.89" meanTimeLoss="7.91" meanOccupancy="11.24" maxOccupancy="13.26" meanMaxJamLengthInVehicles="0.52" meanMaxJamLengthInMeters="3.51" maxJamLengthInVehicles="7" maxJamLengthInMeters="51.26" jamLengthInVehiclesSum="31" jamLengthInMetersSum="210.82" meanHaltingDuration="7.00" maxHaltingDuration="14.00" haltingDurationSum="63.00" meanIntervalHaltingDuration="4.22" maxIntervalHaltingDuration="8.00" intervalHaltingDurationSum="38.00" startedHalts="7.00" meanVehicleNumber="26.80" maxVehicleNumber="32" />
    <interval begin="1740.00" end="1800.00" id="ramp_eval_0_0" nVehContrib="13" flow="780.00" occupancy="9.88" speed="10.08" length="5.00" nVehEntered="12"/>
    <interval begin="1740.00" end="1800.00" id="ramp_eval_2_0" nVehContrib="12" flow="720.00" occupancy="11.14" speed="9.02" length="5.00" nVehEntered="12"/>
   <interval begin="1740.00" end="1800.00" id="ramp_eval_1_0" sampledSeconds="1591.10" nVehEntered="10" nVehLeft="17" nVehSeen="42" meanSpeed="9.07" meanTimeLoss="6.58" meanOccupancy="11.16" maxOccupancy="13.56" meanMaxJamLengthInVehicles="0.87" meanMaxJamLengthInMeters="6.06" maxJamLengthInVehicles="7" maxJamLengthInMeters="51.95" jamLengthInVehiclesSum="52" jamLengthInMetersSum="363.69" meanHaltingDuration="6.71" maxHaltingDuration="10.00" haltingDurationSum="94.00" meanIntervalHaltingDuration="4.21" maxIntervalHaltingDuration="9.00" intervalHaltingDurationSum="59.00" startedHalts="7.00" meanVehicleNumber="26.77" maxVehicleNumber="32" />
    <interval begin="1800.00" end="1860.00" id="ramp_eval_0_0" nVehContrib="11" flow="660.00" occupancy="9.95" speed="9.31" length="5.00" nVehEntered="11"/>