<?xml version="1.0" encoding="UTF-8"?>

<!-- generated on 02/09/19 22:03:27 by Eclipse SUMO Version 1.0.1
<configuration xmlns:xsi="http://www.w3.org/2001/XMLSchema-instance" xsi:noNamespaceSchemaLocation="http://sumo.dlr.de/xsd/sumoConfiguration.xsd">

    <input>
        <net-file value="./project/ramp.net.xml"/>
        <route-files value="./project/ramp.rou.xml"/>
        <additional-files value="./project/ramp.add.xml"/>
    </input>

    <time>
        <begin value="0"/>
    </time>

    <report>
        <verbose value="true"/>
        <no-step-log value="true"/>
    </report>

    <traci_server>
        <remote-port value="51163"/>
    </traci_server>

    <random_number>
        <seed value="848421429"/>
    </random_number>

    <gui_only>
        <quit-on-end value="true"/>
        <start value="true"/>
    </gui_only>

</configuration>
-->

<detector xmlns:xsi="http://www.w3.org/2001/XMLSchema-instance" xsi:noNamespaceSchemaLocation="http://sumo.dlr.de/xsd/det_e1_file.xsd">
    <interval begin="0.00" end="60.00" id="ramp_eval_0_0" nVehContrib="3" flow="180.00" occupancy="2.06" speed="12.16" length="5.00" nVehEntered="3"/>
    <interval begin="0.00" end="60.00" id="ramp_eval_2_0" nVehContrib="0" flow="0.00" occupancy="0.00" speed="-1.00" length="-1.00" nVehEntered="0"/>
   <interval begin="0.00" end="60.00" id="ramp_eval_1_0" sampledSeconds="166.79" nVehEntered="7" nVehLeft="0" nVehSeen="7" meanSpeed="11.77" meanTimeLoss="0.73" meanOccupancy="1.18" maxOccupancy="2.97" meanMaxJamLengthInVehicles="0.00" meanMaxJamLengthInMeters="0.00" maxJamLengthInVehicles="0" maxJamLengthInMeters="0.00" jamLengthInVehiclesSum="0" jamLengthInMetersSum="0.00" meanHaltingDuration="0.00" maxHaltingDuration="0.00" haltingDurationSum="0.00" meanIntervalHaltingDuration="0.00" maxIntervalHaltingDuration="0.00" intervalHaltingDurationSum="0.00" startedHalts="0.00" meanVehicleNumber="2.82" maxVehicleNumber="7" />
    <interval begin="60.00" end="120.00" id="ramp_eval_0_0" nVehContrib="12" flow="720.00" occupancy="9.87" speed="10.24" length="5.00" nVehEntered="12"/>
    <interval begin="60.00" end="120.00" id="ramp_eval_2_0" nVehContrib="2" flow="120.00" occupancy="1.33" speed="12.52" length="5.00" nVehEntered="2"/>
   <interval begin="60.00" end="120.00" id="ramp_eval_1_0" sampledSeconds="828.17" nVehEntered="13" nVehLeft="0" nVehSeen="20" meanSpeed="10.44" meanTimeLoss="3.21" meanOccupancy="5.84" maxOccupancy="7.89" meanMaxJamLengthInVehicles="0.07" meanMaxJamLengthInMeters="0.26" maxJamLengthInVehicles="2" maxJamLengthInMeters="12.66" jamLengthInVehiclesSum="4" jamLengthInMetersSum="15.80" meanHaltingDuration="3.00" maxHaltingDuration="4.00" haltingDurationSum="6.00" meanIntervalHaltingDuration="3.00" maxIntervalHaltingDuration="4.00" intervalHaltingDurationSum="6.00" startedHalts="2.00" meanVehicleNumber="13.90" maxVehicleNumber="20" />
    <interval begin="120.00" end="180.00" id="ramp_eval_0_0" nVehContrib="9" flow="540.00" occupancy="8.19" speed="9.18" length="5.00" nVehEntered="9"/>
    <interval begin="120.00" end="180.00" id="ramp_eval_2_0" nVehContrib="7" flow="420.00" occupancy="5.74" speed="10.23" length="5.00" nVehEntered="7"/>
   <interval begin="120.00" end="180.00" id="ramp_eval_1_0" sampledSeconds="1262.00" nVehEntered="11" nVehLeft="6" nVehSeen="31" meanSpeed="9.57" meanTimeLoss="5.79" meanOccupancy="8.89" maxOccupancy="10.59" meanMaxJamLengthInVehicles="0.05" meanMaxJamLengthInMeters="0.31" maxJamLengthInVehicles="2" maxJamLengthInMeters="13.68" jamLengthInVehiclesSum="3" jamLengthInMetersSum="18.68" meanHaltingDuration="4.50" maxHaltingDuration="5.00" haltingDurationSum="9.00" meanIntervalHaltingDuration="1.50" maxIntervalHaltingDuration="2.00" intervalHaltingDurationSum="3.00" startedHalts="0.00" meanVehicleNumber="21.22" maxVehicleNumber="25" />
    <interval begin="180.00" end="240.00" id="ramp_eval_0_0" nVehContrib="13" flow="780.00" occupancy="10.70" speed="10.20" length="5.00" nVehEntered="13"/>
    <interval begin="180.00" end="240.00" id="ramp_eval_2_0" nVehContrib="12" flow="720.00" occupancy="10.55" speed="9.49" length="5.00" nVehEntered="12"/>
   <interval begin="180.00" end="240.00" id="ramp_eval_1_0" sampledSeconds="1482.72" nVehEntered="11" nVehLeft="9" nVehSeen="36" meanSpeed="9.37" meanTimeLoss="6.93" meanOccupancy="10.37" maxOccupancy="11.15" meanMaxJamLengthInVehicles="0.60" meanMaxJamLengthInMeters="3.83" maxJamLengthInVehicles="6" maxJamLengthInMeters="42.83" jamLengthInVehiclesSum="36" jamLengthInMetersSum="229.53" meanHaltingDuration="7.00" maxHaltingDuration="12.00" haltingDurationSum="42.00" meanIntervalHaltingDuration="7.00" maxIntervalHaltingDuration="12.00" intervalHaltingDurationSum="42.00" startedHalts="6.00" meanVehicleNumber="24.83" maxVehicleNumber="27" />
    <interval begin="240.00" end="300.00" id="ramp_eval_0_0" nVehContrib="11" flow="660.00" occupancy="9.40" speed="9.81" length="5.00" nVehEntered="11"/>
    <interval begin="240.00" end="300.00" id="ramp_eval_2_0" nVehContrib="14" flow="840.00" occupancy="12.71" speed="9.24" length="5.00" nVehEntered="14"/>
   <interval begin="240.00" end="300.00" id="ramp_eval_1_0" sampledSeconds="1597.86" nVehEntered="13" nVehLeft="12" nVehSeen="40" meanSpeed="9.08" meanTimeLoss="7.59" meanOccupancy="11.15" maxOccupancy="12.29" meanMaxJamLengthInVehicles="1.22" meanMaxJamLengthInMeters="8.39" maxJamLengthInVehicles="6" maxJamLengthInMeters="43.74" jamLengthInVehiclesSum="73" jamLengthInMetersSum="503.37" meanHaltingDuration="10.91" maxHaltingDuration="13.00" haltingDurationSum="120.00" meanIntervalHaltingDuration="7.09" maxIntervalHaltingDuration="13.00" intervalHaltingDurationSum="78.00" startedHalts="5.00" meanVehicleNumber="26.85" maxVehicleNumber="29" />
    <interval begin="300.00" end="360.00" id="ramp_eval_0_0" nVehContrib="12" flow="720.00" occupancy="10.22" speed="9.86" length="5.00" nVehEntered="12"/>
    <interval begin="300.00" end="360.00" id="ramp_eval_2_0" nVehContrib="11" flow="660.00" occupancy="9.64" speed="9.52" length="5.00" nVehEntered="11"/>
   <interval begin="300.00" end="360.00" id="ramp_eval_1_0" sampledSeconds="1478.81" nVehEntered="11" nVehLeft="13" nVehSeen="39" meanSpeed="9.09" meanTimeLoss="6.88" meanOccupancy="10.32" maxOccupancy="11.50" meanMaxJamLengthInVehicles="0.67" meanMaxJamLengthInMeters="3.49" maxJamLengthInVehicles="5" maxJamLengthInMeters="35.83" jamLengthInVehiclesSum="40" jamLengthInMetersSum="209.13" meanHaltingDuration="9.18" maxHaltingDuration="14.00" haltingDurationSum="101.00" meanIntervalHaltingDuration="4.18" maxIntervalHaltingDuration="13.00" intervalHaltingDurationSum="46.00" startedHalts="6.00" meanVehicleNumber="24.83" maxVehicleNumber="28" />
    <interval begin="360.00" end="420.00" id="ramp_eval_0_0" nVehContrib="13" flow="780.00" occupancy="11.41" speed="9.57" length="5.00" nVehEntered="13"/>
    <interval begin="360.00" end="420.00" id="ramp_eval_2_0" nVehContrib="11" flow="660.00" occupancy="9.80" speed="9.40" length="5.00" nVehEntered="11"/>
   <interval begin="360.00" end="420.00" id="ramp_eval_1_0" sampledSeconds="1453.37" nVehEntered="12" nVehLeft="13" nVehSeen="38" meanSpeed="9.43" meanTimeLoss="5.33" meanOccupancy="10.16" maxOccupancy="11.43" meanMaxJamLengthInVehicles="0.33" meanMaxJamLengthInMeters="1.75" maxJamLengthInVehicles="2" maxJamLengthInMeters="12.59" jamLengthInVehiclesSum="20" jamLengthInMetersSum="105.01" meanHaltingDuration="11.67" maxHaltingDuration="14.00" haltingDurationSum="35.00" meanIntervalHaltingDuration="7.33" maxIntervalHaltingDuration="12.00" intervalHaltingDurationSum="22.00" startedHalts="2.00" meanVehicleNumber="24.42" maxVehicleNumber="27" />
    <interval begin="420.00" end="480.00" id="ramp_eval_0_0" nVehContrib="9" flow="540.00" occupancy="8.03" speed="9.56" length="5.00" nVehEntered="9"/>
    <interval begin="420.00" end="480.00" id="ramp_eval_2_0" nVehContrib="10" flow="600.00" occupancy="8.80" speed="9.49" length="5.00" nVehEntered="10"/>
   <interval begin="420.00" end="480.00" id="ramp_eval_1_0" sampledSeconds="1467.28" nVehEntered="11" nVehLeft="8" nVehSeen="36" meanSpeed="8.88" meanTimeLoss="7.10" meanOccupancy="10.27" maxOccupancy="11.57" meanMaxJamLengthInVehicles="0.72" meanMaxJamLengthInMeters="4.86" maxJamLengthInVehicles="5" maxJamLengthInMeters="35.44" jamLengthInVehiclesSum="43" jamLengthInMetersSum="291.42" meanHaltingDuration="9.86" maxHaltingDuration="13.00" haltingDurationSum="69.00" meanIntervalHaltingDuration="6.86" maxIntervalHaltingDuration="11.00" intervalHaltingDurationSum="48.00" startedHalts="5.00" meanVehicleNumber="24.63" maxVehicleNumber="28" />
    <interval begin="480.00" end="540.00" id="ramp_eval_0_0" nVehContrib="15" flow="900.00" occupancy="13.89" speed="9.11" length="5.00" nVehEntered="15"/>
    <interval begin="480.00" end="540.00" id="ramp_eval_2_0" nVehContrib="12" flow="720.00" occupancy="10.72" speed="9.37" length="5.00" nVehEntered="12"/>
   <interval begin="480.00" end="540.00" id="ramp_eval_1_0" sampledSeconds="1504.17" nVehEntered="11" nVehLeft="15" nVehSeen="39" meanSpeed="8.60" meanTimeLoss="6.84" meanOccupancy="10.51" maxOccupancy="11.48" meanMaxJamLengthInVehicles="0.47" meanMaxJamLengthInMeters="2.67" maxJamLengthInVehicles="5" maxJamLengthInMeters="36.01" jamLengthInVehiclesSum="28" jamLengthInMetersSum="160.21" meanHaltingDuration="10.71" maxHaltingDuration="13.00" haltingDurationSum="75.00" meanIntervalHaltingDuration="4.29" maxIntervalHaltingDuration="7.00" intervalHaltingDurationSum="30.00" startedHalts="2.00" meanVehicleNumber="25.25" maxVehicleNumber="28" />
    <interval begin="540.00" end="600.00" id="ramp_eval_0_0" nVehContrib="11" flow="660.00" occupancy="9.58" speed="9.61" length="5.00" nVehEntered="11"/>
    <interval begin="540.00" end="600.00" id="ramp_eval_2_0" nVehContrib="10" flow="600.00" occupancy="10.60" speed="7.89" length="5.00" nVehEntered="10"/>
   <interval begin="540.00" end="600.00" id="ramp_eval_1_0" sampledSeconds="1700.14" nVehEntered="12" nVehLeft="3" nVehSeen="36" meanSpeed="8.30" meanTimeLoss="10.34" meanOccupancy="11.95" maxOccupancy="13.69" meanMaxJamLengthInVehicles="0.75" meanMaxJamLengthInMeters="4.99" maxJamLengthInVehicles="8" maxJamLengthInMeters="57.94" jamLengthInVehiclesSum="45" jamLengthInMetersSum="299.36" meanHaltingDuration="5.25" maxHaltingDuration="10.00" haltingDurationSum="63.00" meanIntervalHaltingDuration="4.67" maxIntervalHaltingDuration="10.00" intervalHaltingDurationSum="56.00" startedHalts="11.00" meanVehicleNumber="28.47" maxVehicleNumber="33" />
    <interval begin="600.00" end="660.00" id="ramp_eval_0_0" nVehContrib="11" flow="660.00" occupancy="9.83" speed="9.36" length="5.00" nVehEntered="11"/>
    <interval begin="600.00" end="660.00" id="ramp_eval_2_0" nVehContrib="16" flow="960.00" occupancy="15.58" speed="8.58" length="5.00" nVehEntered="16"/>
   <interval begin="600.00" end="660.00" id="ramp_eval_1_0" sampledSeconds="1757.05" nVehEntered="13" nVehLeft="17" nVehSeen="46" meanSpeed="8.68" meanTimeLoss="7.39" meanOccupancy="12.24" maxOccupancy="14.08" meanMaxJamLengthInVehicles="1.20" meanMaxJamLengthInMeters="7.49" maxJamLengthInVehicles="9" maxJamLengthInMeters="66.92" jamLengthInVehiclesSum="72" jamLengthInMetersSum="449.18" meanHaltingDuration="9.69" maxHaltingDuration="14.00" haltingDurationSum="126.00" meanIntervalHaltingDuration="5.85" maxIntervalHaltingDuration="14.00" intervalHaltingDurationSum="76.00" startedHalts="4.00" meanVehicleNumber="29.48" maxVehicleNumber="34" />
    <interval begin="660.00" end="720.00" id="ramp_eval_0_0" nVehContrib="11" flow="660.00" occupancy="9.17" speed="10.02" length="5.00" nVehEntered="11"/>
    <interval begin="660.00" end="720.00" id="ramp_eval_2_0" nVehContrib="6" flow="360.00" occupancy="5.21" speed="9.97" length="5.00" nVehEntered="7"/>
   <interval begin="660.00" end="720.00" id="ramp_eval_1_0" sampledSeconds="1500.65" nVehEntered="12" nVehLeft="13" nVehSeen="41" meanSpeed="9.02" meanTimeLoss="6.15" meanOccupancy="10.47" maxOccupancy="12.29" meanMaxJamLengthInVehicles="0.80" meanMaxJamLengthInMeters="5.26" maxJamLengthInVehicles="4" maxJamLengthInMeters="29.98" jamLengthInVehiclesSum="48" jamLengthInMetersSum="315.61" meanHaltingDuration="6.64" maxHaltingDuration="15.00" haltingDurationSum="73.00" meanIntervalHaltingDuration="5.09" maxIntervalHaltingDuration="11.00" intervalHaltingDurationSum="56.00" startedHalts="8.00" meanVehicleNumber="25.15" maxVehicleNumber="29" />
    <interval begin="720.00" end="780.00" id="ramp_eval_0_0" nVehContrib="12" flow="720.00" occupancy="10.22" speed="9.86" length="5.00" nVehEntered="12"/>
    <interval begin="720.00" end="780.00" id="ramp_eval_2_0" nVehContrib="15" flow="900.00" occupancy="13.11" speed="9.43" length="5.00" nVehEntered="14"/>
   <interval begin="720.00" end="780.00" id="ramp_eval_1_0" sampledSeconds="1508.83" nVehEntered="11" nVehLeft="13" nVehSeen="39" meanSpeed="9.38" meanTimeLoss="6.04" meanOccupancy="10.54" maxOccupancy="11.46" meanMaxJamLengthInVehicles="0.62" meanMaxJamLengthInMeters="4.10" maxJamLengthInVehicles="4" maxJamLengthInMeters="27.84" jamLengthInVehiclesSum="37" jamLengthInMetersSum="246.05" meanHaltingDuration="10.17" maxHaltingDuration="12.00" haltingDurationSum="61.00" meanIntervalHaltingDuration="6.83" maxIntervalHaltingDuration="11.00" intervalHaltingDurationSum="41.00" startedHalts="4.00" meanVehicleNumber="25.35" maxVehicleNumber="28" />
    <interval begin="780.00" end="840.00" id="ramp_eval_0_0" nVehContrib="12" flow="720.00" occupancy="10.58" speed="9.56" length="5.00" nVehEntered="12"/>
    <interval begin="780.00" end="840.00" id="ramp_eval_2_0" nVehContrib="12" flow="720.00" occupancy="10.44" speed="9.61" length="5.00" nVehEntered="12"/>
   <interval begin="780.00" end="840.00" id="ramp_eval_1_0" sampledSeconds="1481.04" nVehEntered="12" nVehLeft="11" nVehSeen="38" meanSpeed="9.21" meanTimeLoss="6.42" meanOccupancy="10.35" maxOccupancy="11.15" meanMaxJamLengthInVehicles="0.85" meanMaxJamLengthInMeters="5.70" maxJamLengthInVehicles="5" maxJamLengthInMeters="35.11" jamLengthInVehiclesSum="51" jamLengthInMetersSum="342.07" meanHaltingDuration="10.44" maxHaltingDuration="13.00" haltingDurationSum="94.00" meanIntervalHaltingDuration="6.22" maxIntervalHaltingDuration="12.00" intervalHaltingDurationSum="56.00" startedHalts="5.00" meanVehicleNumber="24.83" maxVehicleNumber="27" />
    <interval begin="840.00" end="900.00" id="ramp_eval_0_0" nVehContrib="10" flow="600.00" occupancy="8.08" speed="10.38" length="5.00" nVehEntered="10"/>
    <interval begin="840.00" end="900.00" id="ramp_eval_2_0" nVehContrib="13" flow="780.00" occupancy="12.13" speed="8.97" length="5.00" nVehEntered="13"/>
   <interval begin="840.00" end="900.00" id="ramp_eval_1_0" sampledSeconds="1513.23" nVehEntered="11" nVehLeft="9" nVehSeen="38" meanSpeed="9.28" meanTimeLoss="5.88" meanOccupancy="10.60" maxOccupancy="11.99" meanMaxJamLengthInVehicles="0.47" meanMaxJamLengthInMeters="2.57" maxJamLengthInVehicles="4" maxJamLengthInMeters="28.62" jamLengthInVehiclesSum="28" jamLengthInMetersSum="154.15" meanHaltingDuration="8.55" maxHaltingDuration="12.00" haltingDurationSum="77.00" meanIntervalHaltingDuration="3.56" maxIntervalHaltingDuration="10.00" intervalHaltingDurationSum="32.00" startedHalts="4.00" meanVehicleNumber="25.37" maxVehicleNumber="29" />
    <interval begin="900.00" end="960.00" id="ramp_eval_0_0" nVehContrib="12" flow="720.00" occupancy="10.89" speed="9.25" length="5.00" nVehEntered="12"/>
    <interval begin="900.00" end="960.00" id="ramp_eval_2_0" nVehContrib="11" flow="660.00" occupancy="9.65" speed="9.53" length="5.00" nVehEntered="11"/>
   <interval begin="900.00" end="960.00" id="ramp_eval_1_0" sampledSeconds="1478.53" nVehEntered="11" nVehLeft="15" nVehSeen="40" meanSpeed="8.81" meanTimeLoss="6.59" meanOccupancy="10.31" maxOccupancy="12.29" meanMaxJamLengthInVehicles="0.77" meanMaxJamLengthInMeters="4.61" maxJamLengthInVehicles="5" maxJamLengthInMeters="37.14" jamLengthInVehiclesSum="46" jamLengthInMetersSum="276.46" meanHaltingDuration="5.54" maxHaltingDuration="11.00" haltingDurationSum="72.00" meanIntervalHaltingDuration="4.23" maxIntervalHaltingDuration="11.00" intervalHaltingDurationSum="55.00" startedHalts="9.00" meanVehicleNumber="24.87" maxVehicleNumber="30" />
    <interval begin="960.00" end="1020.00" id="ramp_eval_0_0" nVehContrib="13" flow="780.00" occupancy="12.27" speed="8.94" length="5.00" nVehEntered="13"/>
    <interval begin="960.00" end="1020.00" id="ramp_eval_2_0" nVehContrib="9" flow="540.00" occupancy="9.16" speed="8.97" length="5.00" nVehEntered="10"/>
   <interval begin="960.00" end="1020.00" id="ramp_eval_1_0" sampledSeconds="1550.30" nVehEntered="13" nVehLeft="7" nVehSeen="38" meanSpeed="8.60" meanTimeLoss="7.91" meanOccupancy="10.87" maxOccupancy="12.54" meanMaxJamLengthInVehicles="0.88" meanMaxJamLengthInMeters="5.94" maxJamLengthInVehicles="6" maxJamLengthInMeters="42.55" jamLengthInVehiclesSum="53" jamLengthInMetersSum="356.68" meanHaltingDuration="7.50" maxHaltingDuration="12.00" haltingDurationSum="75.00" meanIntervalHaltingDuration="6.00" maxIntervalHaltingDuration="12.00" intervalHaltingDurationSum="60.00" startedHalts="7.00" meanVehicleNumber="26.00" maxVehicleNumber="31" />
    <interval begin="1020.00" end="1080.00" id="ramp_eval_0_0" nVehContrib="9" flow="540.00" occupancy="7.42" speed="10.19" length="5.00" nVehEntered="9"/>
    <interval begin="1020.00" end="1080.00" id="ramp_eval_2_0" nVehContrib="11" flow="660.00" occupancy="9.75" speed="8.73" length="5.00" nVehEntered="10"/>
   <interval begin="1020.00" end="1080.00" id="ramp_eval_1_0" sampledSeconds="1645.46" nVehEntered="11" nVehLeft="12" nVehSeen="42" meanSpeed="8.64" meanTimeLoss="8.01" meanOccupancy="11.53" maxOccupancy="12.73" meanMaxJamLengthInVehicles="0.73" meanMaxJamLengthInMeters="4.89" maxJamLengthInVehicles="6" maxJamLengthInMeters="43.81" jamLengthInVehiclesSum="44" jamLengthInMetersSum="293.31" meanHaltingDuration="6.87" maxHaltingDuration="13.00" haltingDurationSum="103.00" meanIntervalHaltingDuration="3.53" maxIntervalHaltingDuration="7.00" intervalHaltingDurationSum="53.00" startedHalts="9.00" meanVehicleNumber="27.62" maxVehicleNumber="31" />
    <interval begin="1080.00" end="1140.00" id="ramp_eval_0_0" nVehContrib="14" flow="840.00" occupancy="12.55" speed="9.39" length="5.00" nVehEntered="14"/>
    <interval begin="1080.00" end="1140.00" id="ramp_eval_2_0" nVehContrib="13" flow="780.00" occupancy="12.46" speed="8.77" length="5.00" nVehEntered="13"/>
   <interval begin="1080.00" end="1140.00" id="ramp_eval_1_0" sampledSeconds="1530.44" nVehEntered="12" nVehLeft="16" nVehSeen="42" meanSpeed="8.96" meanTimeLoss="6.66" meanOccupancy="10.73" maxOccupancy="12.71" meanMaxJamLengthInVehicles="0.30" meanMaxJamLengthInMeters="2.06" maxJamLengthInVehicles="4" maxJamLengthInMeters="29.06" jamLengthInVehiclesSum="18" jamLengthInMetersSum="123.72" meanHaltingDuration="5.50" maxHaltingDuration="6.00" haltingDurationSum="33.00" meanIntervalHaltingDuration="3.33" maxIntervalHaltingDuration="6.00" intervalHaltingDurationSum="20.00" startedHalts="2.00" meanVehicleNumber="25.72" maxVehicleNumber="30" />
    <interval begin="1140.00" end="1200.00" id="ramp_eval_0_0" nVehContrib="12" flow="720.00" occupancy="10.85" speed="9.29" length="5.00" nVehEntered="12"/>
    <interval begin="1140.00" end="1200.00" id="ramp_eval_2_0" nVehContrib="13" flow="780.00" occupancy="12.42" speed="8.76" length="5.00" nVehEntered="13"/>
   <interval begin="1140.00" end="1200.00" id="ramp_eval_1_0" sampledSeconds="1597.27" nVehEntered="11" nVehLeft="6" nVehSeen="37" meanSpeed="8.97" meanTimeLoss="7.68" meanOccupancy="11.20" maxOccupancy="12.84" meanMaxJamLengthInVehicles="0.68" meanMaxJamLengthInMeters="4.68" maxJamLengthInVehicles="6" maxJamLengthInMeters="42.56" jamLengthInVehiclesSum="41" jamLengthInMetersSum="280.90" meanHaltingDuration="6.86" maxHaltingDuration="11.00" haltingDurationSum="48.00" meanIntervalHaltingDuration="6.86" maxIntervalHaltingDuration="11.00" intervalHaltingDurationSum="48.00" startedHalts="7.00" meanVehicleNumber="26.80" maxVehicleNumber="31" />
    <interval begin="1200.00" end="1260.00" id="ramp_eval_0_0" nVehContrib="11" flow="660.00" occupancy="10.40" speed="8.91" length="5.00" nVehEntered="11"/>
    <interval begin="1200.00" end="1260.00" id="ramp_eval_2_0" nVehContrib="8" flow="480.00" occupancy="7.24" speed="9.31" length="5.00" nVehEntered="8"/>
   <interval begin="1200.00" end="1260.00" id="ramp_eval_1_0" sampledSeconds="1548.04" nVehEntered="12" nVehLeft="18" nVehSeen="43" meanSpeed="8.27" meanTimeLoss="8.25" meanOccupancy="10.85" maxOccupancy="12.91" meanMaxJamLengthInVehicles="1.32" meanMaxJamLengthInMeters="9.45" maxJamLengthInVehicles="7" maxJamLengthInMeters="51.20" jamLengthInVehiclesSum="79" jamLengthInMetersSum="567.26" meanHaltingDuration="9.57" maxHaltingDuration="13.00" haltingDurationSum="134.00" meanIntervalHaltingDuration="6.14" maxIntervalHaltingDuration="10.00" intervalHaltingDurationSum="86.00" startedHalts="7.00" meanVehicleNumber="26.02" maxVehicleNumber="31" />
    <interval begin="1260.00" end="1320.00" id="ramp_eval_0_0" nVehContrib="14" flow="840.00" occupancy="11.23" speed="10.44" length="5.00" nVehEntered="14"/>
    <interval begin="1260.00" end="1320.00" id="ramp_eval_2_0" nVehContrib="13" flow="780.00" occupancy="12.23" speed="8.87" length="5.00" nVehEntered="13"/>
   <interval begin="1260.00" end="1320.00" id="ramp_eval_1_0" sampledSeconds="1611.79" nVehEntered="12" nVehLeft="8" nVehSeen="37" meanSpeed="8.89" meanTimeLoss="7.58" meanOccupancy="11.30" maxOccupancy="11.99" meanMaxJamLengthInVehicles="0.53" meanMaxJamLengthInMeters="3.61" maxJamLengthInVehicles="5" maxJamLengthInMeters="35.76" jamLengthInVehiclesSum="32" jamLengthInMetersSum="216.56" meanHaltingDuration="7.40" maxHaltingDuration="10.00" haltingDurationSum="37.00" meanIntervalHaltingDuration="7.40" maxIntervalHaltingDuration="10.00" intervalHaltingDurationSum="37.00" startedHalts="5.00" meanVehicleNumber="27.00" maxVehicleNumber="29" />
    <interval begin="1320.00" end="1380.00" id="ramp_eval_0_0" nVehContrib="9" flow="540.00" occupancy="7.72" speed="9.78" length="5.00" nVehEntered="9"/>
    <interval begin="1320.00" end="1380.00" id="ramp_eval_2_0" nVehContrib="14" flow="840.00" occupancy="14.75" speed="8.04" length="5.00" nVehEntered="14"/>
   <interval begin="1320.00" end="1380.00" id="ramp_eval_1_0" sampledSeconds="1721.73" nVehEntered="12" nVehLeft="10" nVehSeen="41" meanSpeed="8.67" meanTimeLoss="8.76" meanOccupancy="12.05" maxOccupancy="13.14" meanMaxJamLengthInVehicles="1.18" meanMaxJamLengthInMeters="8.18" maxJamLengthInVehicles="9" maxJamLengthInMeters="65.44" jamLengthInVehiclesSum="71" jamLengthInMetersSum="490.83" meanHaltingDuration="8.36" maxHaltingDuration="13.00" haltingDurationSum="117.00" meanIntervalHaltingDuration="5.71" maxIntervalHaltingDuration="13.00" intervalHaltingDurationSum="80.00" startedHalts="9.00" meanVehicleNumber="28.88" maxVehicleNumber="31" />
    <interval begin="1380.00" end="1440.00" id="ramp_eval_0_0" nVehContrib="11" flow="660.00" occupancy="9.89" speed="9.35" length="5.00" nVehEntered="11"/>
    <interval begin="1380.00" end="1440.00" id="ramp_eval_2_0" nVehContrib="13" flow="780.00" occupancy="13.01" speed="8.88" length="5.00" nVehEntered="13"/>
   <interval begin="1380.00" end="1440.00" id="ramp_eval_1_0" sampledSeconds="1522.46" nVehEntered="11" nVehLeft="16" nVehSeen="42" meanSpeed="8.57" meanTimeLoss="8.08" meanOccupancy="10.67" maxOccupancy="13.14" meanMaxJamLengthInVehicles="0.97" meanMaxJamLengthInMeters="6.92" maxJamLengthInVehicles="9" maxJamLengthInMeters="66.30" jamLengthInVehiclesSum="58" jamLengthInMetersSum="415.08" meanHaltingDuration="11.36" maxHaltingDuration="14.00" haltingDurationSum="125.00" meanIntervalHaltingDuration="5.45" maxIntervalHaltingDuration="11.00" intervalHaltingDurationSum="60.00" startedHalts="2.00" meanVehicleNumber="25.58" maxVehicleNumber="32" />
    <interval begin="1440.00" end="1500.00" id="ramp_eval_0_0" nVehContrib="15" flow="900.00" occupancy="13.09" speed="9.61" length="5.00" nVehEntered="15"/>
    <interval begin="1440.00" end="1500.00" id="ramp_eval_2_0" nVehContrib="7" flow="420.00" occupancy="6.74" speed="8.65" length="5.00" nVehEntered="7"/>
   <interval begin="1440.00" end="1500.00" id="ramp_eval_1_0" sampledSeconds="1499.98" nVehEntered="12" nVehLeft="12" nVehSeen="38" meanSpeed="9.03" meanTimeLoss="7.34" meanOccupancy="10.54" maxOccupancy="11.86" meanMaxJamLengthInVehicles="0.10" meanMaxJamLengthInMeters="0.42" maxJamLengthInVehicles="1" maxJamLengthInMeters="5.00" jamLengthInVehiclesSum="6" jamLengthInMetersSum="25.36" meanHaltingDuration="2.00" maxHaltingDuration="2.00" haltingDurationSum="12.00" meanIntervalHaltingDuration="1.83" maxIntervalHaltingDuration="2.00" intervalHaltingDurationSum="11.00" startedHalts="5.00" meanVehicleNumber="25.17" maxVehicleNumber="28" />
    <interval begin="1500.00" end="1560.00" id="ramp_eval_0_0" nVehContrib="10" flow="600.00" occupancy="8.67" speed="9.81" length="5.00" nVehEntered="10"/>
    <interval begin="1500.00" end="1560.00" id="ramp_eval_2_0" nVehContrib="13" flow="780.00" occupancy="12.25" speed="8.86" length="5.00" nVehEntered="13"/>
   <interval begin="1500.00" end="1560.00" id="ramp_eval_1_0" sampledSeconds="1607.61" nVehEntered="12" nVehLeft="9" nVehSeen="38" meanSpeed="9.29" meanTimeLoss="7.31" meanOccupancy="11.26" maxOccupancy="11.99" meanMaxJamLengthInVehicles="0.57" meanMaxJamLengthInMeters="3.74" maxJamLengthInVehicles="5" maxJamLengthInMeters="35.38" jamLengthInVehiclesSum="34" jamLengthInMetersSum="224.68" meanHaltingDuration="7.80" maxHaltingDuration="12.00" haltingDurationSum="39.00" meanIntervalHaltingDuration="7.80" maxIntervalHaltingDuration="12.00" intervalHaltingDurationSum="39.00" startedHalts="5.00" meanVehicleNumber="26.93" maxVehicleNumber="29" />
    <interval begin="1560.00" end="1620.00" id="ramp_eval_0_0" nVehContrib="12" flow="720.00" occupancy="9.56" speed="10.50" length="5.00" nVehEntered="12"/>
    <interval begin="1560.00" end="1620.00" id="ramp_eval_2_0" nVehContrib="11" flow="660.00" occupancy="9.94" speed="9.24" length="5.00" nVehEntered="11"/>
   <interval begin="1560.00" end="1620.00" id="ramp_eval_1_0" sampledSeconds="1464.21" nVehEntered="11" nVehLeft="14" nVehSeen="40" meanSpeed="9.42" meanTimeLoss="5.89" meanOccupancy="10.28" maxOccupancy="12.29" meanMaxJamLengthInVehicles="0.30" meanMaxJamLengthInMeters="2.09" maxJamLengthInVehicles="5" maxJamLengthInMeters="36.11" jamLengthInVehiclesSum="18" jamLengthInMetersSum="125.60" meanHaltingDuration="11.40" maxHaltingDuration="13.00" haltingDurationSum="57.00" meanIntervalHaltingDuration="3.60" maxIntervalHaltingDuration="6.00" intervalHaltingDurationSum="18.00" startedHalts="0.00" meanVehicleNumber="24.63" maxVehicleNumber="29" />
    <interval begin="1620.00" end="1680.00" id="ramp_eval_0_0" nVehContrib="10" flow="600.00" occupancy="8.58" speed="9.75" length="5.00" nVehEntered="10"/>
    <interval begin="1620.00" end="1680.00" id="ramp_eval_2_0" nVehContrib="15" flow="900.00" occupancy="13.09" speed="9.61" length="5.00" nVehEntered="15"/>
   <interval begin="1620.00" end="1680.00" id="ramp_eval_1_0" sampledSeconds="1447.00" nVehEntered="11" nVehLeft="13" nVehSeen="37" meanSpeed="9.54" meanTimeLoss="5.88" meanOccupancy="10.12" maxOccupancy="11.86" meanMaxJamLengthInVehicles="0.40" meanMaxJamLengthInMeters="2.58" maxJamLengthInVehicles="3" maxJamLengthInMeters="20.32" jamLengthInVehiclesSum="24" jamLengthInMetersSum="154.54" meanHaltingDuration="7.00" maxHaltingDuration="10.00" haltingDurationSum="28.00" meanIntervalHaltingDuration="7.00" maxIntervalHaltingDuration="10.00" intervalHaltingDurationSum="28.00" startedHalts="4.00" meanVehicleNumber="24.27" maxVehicleNumber="28" />
    <interval begin="1680.00" end="1740.00" id="ramp_eval_0_0" nVehContrib="12" flow="720.00" occupancy="11.27" speed="9.27" length="5.00" nVehEntered="13"/>
    <interval begin="1680.00" end="1740.00" id="ramp_eval_2_0" nVehContrib="13" flow="780.00" occupancy="11.80" speed="9.22" length="5.00" nVehEntered="13"/>
   <interval begin="1680.00" end="1740.00" id="ramp_eval_1_0" sampledSeconds="1502.62" nVehEntered="12" nVehLeft="8" nVehSeen="36" meanSpeed="9.10" meanTimeLoss="7.42" meanOccupancy="10.55" maxOccupancy="11.86" meanMaxJamLengthInVehicles="0.42" meanMaxJamLengthInMeters="2.69" maxJamLengthInVehicles="4" maxJamLengthInMeters="28.50" jamLengthInVehiclesSum="25" jamLengthInMetersSum="161.45" meanHaltingDuration="6.44" maxHaltingDuration="11.00" haltingDurationSum="58.00" meanIntervalHaltingDuration="3.33" maxIntervalHaltingDuration="6.00" intervalHaltingDurationSum="30.00" startedHalts="5.00" meanVehicleNumber="25.20" maxVehicleNumber="28" />
    <interval begin="1740.00" end="1800.00" id="ramp_eval_0_0" nVehContrib="12" flow="720.00" occupancy="8.73" speed="11.00" length="5.00" nVehEntered="11"/>
    <interval begin="1740.00" end="1800.00" id="ramp_eval_2_0" nVehContrib="7" flow="420.00" occupancy="6.35" speed="9.22" length="5.00" nVehEntered="7"/>
   <interval begin="1740.00" end="1800.00" id="ramp_eval_1_0" sampledSeconds="1500.22" nVehEntered="12" nVehLeft="15" nVehSeen="40" meanSpeed="9.44" meanTimeLoss="6.39" meanOccupancy="10.46" maxOccupancy="11.86" meanMaxJamLengthInVehicles="0.72" meanMaxJamLengthInMeters="4.18" maxJamLengthInVehicles="5" maxJamLengthInMeters="36.38" jamLengthInVehiclesSum="43" jamLengthInMetersSum="250.58" meanHaltingDuration="6.70" maxHaltingDuration="11.00" haltingDurationSum="67.00" meanIntervalHaltingDuration="4.80" maxIntervalHaltingDuration="11.00" intervalHaltingDurationSum="48.00" startedHalts="5.00" meanVehicleNumber="25.20" maxVehicleNumber="29" />
    <interval begin="1800.00" end="1860.00" id="ramp_eval_0_0" nVehContrib="12" flow="720.00" occupancy="9.51" speed="10.58" length="5.00" nVehEntered="12"/>