<?xml version="1.0" encoding="UTF-8"?>

<!-- generated on 02/22/19 15:11:32 by Eclipse SUMO Version 1.0.1
<configuration xmlns:xsi="http://www.w3.org/2001/XMLSchema-instance" xsi:noNamespaceSchemaLocation="http://sumo.dlr.de/xsd/sumoConfiguration.xsd">

    <input>
        <net-file value="./project/ramp.net.xml"/>
        <route-files value="./project/ramp.rou.xml"/>
        <additional-files value="./project/ramp.add.xml"/>
    </input>

    <time>
        <begin value="0"/>
    </time>

    <report>
        <verbose value="true"/>
        <no-step-log value="true"/>
    </report>

    <traci_server>
        <remote-port value="57447"/>
    </traci_server>

    <random_number>
        <seed value="665025680"/>
    </random_number>

    <gui_only>
        <quit-on-end value="true"/>
        <start value="true"/>
    </gui_only>

</configuration>
-->

<detector xmlns:xsi="http://www.w3.org/2001/XMLSchema-instance" xsi:noNamespaceSchemaLocation="http://sumo.dlr.de/xsd/det_e1_file.xsd">
    <interval begin="0.00" end="60.00" id="ramp_eval_0_0" nVehContrib="0" flow="0.00" occupancy="0.00" speed="-1.00" length="-1.00" nVehEntered="0"/>
    <interval begin="0.00" end="60.00" id="ramp_eval_2_0" nVehContrib="0" flow="0.00" occupancy="0.00" speed="-1.00" length="-1.00" nVehEntered="0"/>
   <interval begin="0.00" end="60.00" id="ramp_eval_1_0" sampledSeconds="298.52" nVehEntered="15" nVehLeft="0" nVehSeen="15" meanSpeed="8.67" meanTimeLoss="4.25" meanOccupancy="2.12" maxOccupancy="6.36" meanMaxJamLengthInVehicles="0.00" meanMaxJamLengthInMeters="0.00" maxJamLengthInVehicles="0" maxJamLengthInMeters="0.00" jamLengthInVehiclesSum="0" jamLengthInMetersSum="0.00" meanHaltingDuration="0.00" maxHaltingDuration="0.00" haltingDurationSum="0.00" meanIntervalHaltingDuration="0.00" maxIntervalHaltingDuration="0.00" intervalHaltingDurationSum="0.00" startedHalts="0.00" meanVehicleNumber="5.18" maxVehicleNumber="15" />
    <interval begin="60.00" end="120.00" id="ramp_eval_0_0" nVehContrib="25" flow="1500.00" occupancy="23.72" speed="9.00" length="5.00" nVehEntered="26"/>
    <interval begin="60.00" end="120.00" id="ramp_eval_2_0" nVehContrib="0" flow="0.00" occupancy="0.00" speed="-1.00" length="-1.00" nVehEntered="0"/>
   <interval begin="60.00" end="120.00" id="ramp_eval_1_0" sampledSeconds="1451.49" nVehEntered="19" nVehLeft="0" nVehSeen="34" meanSpeed="9.09" meanTimeLoss="8.06" meanOccupancy="10.28" maxOccupancy="14.07" meanMaxJamLengthInVehicles="0.00" meanMaxJamLengthInMeters="0.00" maxJamLengthInVehicles="0" maxJamLengthInMeters="0.00" jamLengthInVehiclesSum="0" jamLengthInMetersSum="0.00" meanHaltingDuration="0.00" maxHaltingDuration="0.00" haltingDurationSum="0.00" meanIntervalHaltingDuration="0.00" maxIntervalHaltingDuration="0.00" intervalHaltingDurationSum="0.00" startedHalts="0.00" meanVehicleNumber="24.33" maxVehicleNumber="34" />
    <interval begin="120.00" end="180.00" id="ramp_eval_0_0" nVehContrib="18" flow="1080.00" occupancy="15.69" speed="9.36" length="5.00" nVehEntered="17"/>
    <interval begin="120.00" end="180.00" id="ramp_eval_2_0" nVehContrib="16" flow="960.00" occupancy="15.07" speed="8.85" length="5.00" nVehEntered="16"/>
   <interval begin="120.00" end="180.00" id="ramp_eval_1_0" sampledSeconds="2481.25" nVehEntered="19" nVehLeft="9" nVehSeen="53" meanSpeed="9.26" meanTimeLoss="8.09" meanOccupancy="17.50" maxOccupancy="19.49" meanMaxJamLengthInVehicles="0.00" meanMaxJamLengthInMeters="0.00" maxJamLengthInVehicles="0" maxJamLengthInMeters="0.00" jamLengthInVehiclesSum="0" jamLengthInMetersSum="0.00" meanHaltingDuration="0.00" maxHaltingDuration="0.00" haltingDurationSum="0.00" meanIntervalHaltingDuration="0.00" maxIntervalHaltingDuration="0.00" intervalHaltingDurationSum="0.00" startedHalts="0.00" meanVehicleNumber="41.55" maxVehicleNumber="47" />
    <interval begin="180.00" end="240.00" id="ramp_eval_0_0" nVehContrib="18" flow="1080.00" occupancy="15.54" speed="9.71" length="5.00" nVehEntered="18"/>
    <interval begin="180.00" end="240.00" id="ramp_eval_2_0" nVehContrib="19" flow="1140.00" occupancy="16.62" speed="9.56" length="5.00" nVehEntered="19"/>
   <interval begin="180.00" end="240.00" id="ramp_eval_1_0" sampledSeconds="2382.67" nVehEntered="21" nVehLeft="26" nVehSeen="65" meanSpeed="9.46" meanTimeLoss="5.73" meanOccupancy="16.72" maxOccupancy="18.22" meanMaxJamLengthInVehicles="0.00" meanMaxJamLengthInMeters="0.00" maxJamLengthInVehicles="0" maxJamLengthInMeters="0.00" jamLengthInVehiclesSum="0" jamLengthInMetersSum="0.00" meanHaltingDuration="0.00" maxHaltingDuration="0.00" haltingDurationSum="0.00" meanIntervalHaltingDuration="0.00" maxIntervalHaltingDuration="0.00" intervalHaltingDurationSum="0.00" startedHalts="0.00" meanVehicleNumber="40.17" maxVehicleNumber="44" />
    <interval begin="240.00" end="300.00" id="ramp_eval_0_0" nVehContrib="21" flow="1260.00" occupancy="18.40" speed="9.54" length="5.00" nVehEntered="21"/>
    <interval begin="240.00" end="300.00" id="ramp_eval_2_0" nVehContrib="20" flow="1200.00" occupancy="18.88" speed="9.03" length="5.00" nVehEntered="21"/>
   <interval begin="240.00" end="300.00" id="ramp_eval_1_0" sampledSeconds="2596.29" nVehEntered="17" nVehLeft="14" nVehSeen="56" meanSpeed="9.45" meanTimeLoss="6.98" meanOccupancy="18.29" maxOccupancy="19.92" meanMaxJamLengthInVehicles="0.00" meanMaxJamLengthInMeters="0.00" maxJamLengthInVehicles="0" maxJamLengthInMeters="0.00" jamLengthInVehiclesSum="0" jamLengthInMetersSum="0.00" meanHaltingDuration="0.00" maxHaltingDuration="0.00" haltingDurationSum="0.00" meanIntervalHaltingDuration="0.00" maxIntervalHaltingDuration="0.00" intervalHaltingDurationSum="0.00" startedHalts="0.00" meanVehicleNumber="43.55" maxVehicleNumber="48" />
</detector>
