<?xml version="1.0" encoding="UTF-8"?>

<!-- generated on 02/12/19 03:38:09 by Eclipse SUMO Version 1.0.1
<configuration xmlns:xsi="http://www.w3.org/2001/XMLSchema-instance" xsi:noNamespaceSchemaLocation="http://sumo.dlr.de/xsd/sumoConfiguration.xsd">

    <input>
        <net-file value="./project/ramp.net.xml"/>
        <route-files value="./project/ramp.rou.xml"/>
        <additional-files value="./project/ramp.add.xml"/>
    </input>

    <time>
        <begin value="0"/>
    </time>

    <report>
        <verbose value="true"/>
        <no-step-log value="true"/>
    </report>

    <traci_server>
        <remote-port value="52726"/>
    </traci_server>

    <random_number>
        <seed value="800889150"/>
    </random_number>

    <gui_only>
        <quit-on-end value="true"/>
        <start value="true"/>
    </gui_only>

</configuration>
-->

<detector xmlns:xsi="http://www.w3.org/2001/XMLSchema-instance" xsi:noNamespaceSchemaLocation="http://sumo.dlr.de/xsd/det_e1_file.xsd">
    <interval begin="0.00" end="60.00" id="ramp_eval_0_0" nVehContrib="3" flow="180.00" occupancy="2.44" speed="10.27" length="5.00" nVehEntered="3"/>
    <interval begin="0.00" end="60.00" id="ramp_eval_2_0" nVehContrib="0" flow="0.00" occupancy="0.00" speed="-1.00" length="-1.00" nVehEntered="0"/>
   <interval begin="0.00" end="60.00" id="ramp_eval_1_0" sampledSeconds="214.29" nVehEntered="12" nVehLeft="0" nVehSeen="12" meanSpeed="10.02" meanTimeLoss="1.70" meanOccupancy="1.53" maxOccupancy="5.08" meanMaxJamLengthInVehicles="0.00" meanMaxJamLengthInMeters="0.00" maxJamLengthInVehicles="0" maxJamLengthInMeters="0.00" jamLengthInVehiclesSum="0" jamLengthInMetersSum="0.00" meanHaltingDuration="0.00" maxHaltingDuration="0.00" haltingDurationSum="0.00" meanIntervalHaltingDuration="0.00" maxIntervalHaltingDuration="0.00" intervalHaltingDurationSum="0.00" startedHalts="0.00" meanVehicleNumber="3.65" maxVehicleNumber="12" />
    <interval begin="60.00" end="120.00" id="ramp_eval_0_0" nVehContrib="15" flow="900.00" occupancy="13.21" speed="9.51" length="5.00" nVehEntered="15"/>
    <interval begin="60.00" end="120.00" id="ramp_eval_2_0" nVehContrib="0" flow="0.00" occupancy="0.00" speed="-1.00" length="-1.00" nVehEntered="0"/>
   <interval begin="60.00" end="120.00" id="ramp_eval_1_0" sampledSeconds="1180.16" nVehEntered="16" nVehLeft="0" nVehSeen="28" meanSpeed="9.55" meanTimeLoss="5.21" meanOccupancy="8.36" maxOccupancy="11.86" meanMaxJamLengthInVehicles="0.00" meanMaxJamLengthInMeters="0.00" maxJamLengthInVehicles="0" maxJamLengthInMeters="0.00" jamLengthInVehiclesSum="0" jamLengthInMetersSum="0.00" meanHaltingDuration="0.00" maxHaltingDuration="0.00" haltingDurationSum="0.00" meanIntervalHaltingDuration="0.00" maxIntervalHaltingDuration="0.00" intervalHaltingDurationSum="0.00" startedHalts="0.00" meanVehicleNumber="19.82" maxVehicleNumber="28" />
    <interval begin="120.00" end="180.00" id="ramp_eval_0_0" nVehContrib="20" flow="1200.00" occupancy="18.54" speed="9.03" length="5.00" nVehEntered="20"/>
    <interval begin="120.00" end="180.00" id="ramp_eval_2_0" nVehContrib="15" flow="900.00" occupancy="12.82" speed="9.76" length="5.00" nVehEntered="15"/>
   <interval begin="120.00" end="180.00" id="ramp_eval_1_0" sampledSeconds="2099.09" nVehEntered="21" nVehLeft="10" nVehSeen="49" meanSpeed="9.22" meanTimeLoss="6.03" meanOccupancy="14.79" maxOccupancy="16.53" meanMaxJamLengthInVehicles="0.00" meanMaxJamLengthInMeters="0.00" maxJamLengthInVehicles="0" maxJamLengthInMeters="0.00" jamLengthInVehiclesSum="0" jamLengthInMetersSum="0.00" meanHaltingDuration="0.00" maxHaltingDuration="0.00" haltingDurationSum="0.00" meanIntervalHaltingDuration="0.00" maxIntervalHaltingDuration="0.00" intervalHaltingDurationSum="0.00" startedHalts="0.00" meanVehicleNumber="35.20" maxVehicleNumber="39" />
    <interval begin="180.00" end="240.00" id="ramp_eval_0_0" nVehContrib="21" flow="1260.00" occupancy="18.73" speed="9.37" length="5.00" nVehEntered="21"/>
    <interval begin="180.00" end="240.00" id="ramp_eval_2_0" nVehContrib="15" flow="900.00" occupancy="15.34" speed="8.20" length="5.00" nVehEntered="15"/>
   <interval begin="180.00" end="240.00" id="ramp_eval_1_0" sampledSeconds="2555.23" nVehEntered="18" nVehLeft="14" nVehSeen="57" meanSpeed="8.91" meanTimeLoss="7.91" meanOccupancy="18.00" maxOccupancy="19.64" meanMaxJamLengthInVehicles="0.00" meanMaxJamLengthInMeters="0.00" maxJamLengthInVehicles="0" maxJamLengthInMeters="0.00" jamLengthInVehiclesSum="0" jamLengthInMetersSum="0.00" meanHaltingDuration="0.00" maxHaltingDuration="0.00" haltingDurationSum="0.00" meanIntervalHaltingDuration="0.00" maxIntervalHaltingDuration="0.00" intervalHaltingDurationSum="0.00" startedHalts="0.00" meanVehicleNumber="42.82" maxVehicleNumber="47" />
    <interval begin="240.00" end="300.00" id="ramp_eval_0_0" nVehContrib="16" flow="960.00" occupancy="13.72" speed="9.77" length="5.00" nVehEntered="16"/>
    <interval begin="240.00" end="300.00" id="ramp_eval_2_0" nVehContrib="19" flow="1140.00" occupancy="18.54" speed="8.82" length="5.00" nVehEntered="20"/>
   <interval begin="240.00" end="300.00" id="ramp_eval_1_0" sampledSeconds="2579.61" nVehEntered="20" nVehLeft="22" nVehSeen="63" meanSpeed="9.25" meanTimeLoss="6.79" meanOccupancy="18.14" maxOccupancy="19.49" meanMaxJamLengthInVehicles="0.00" meanMaxJamLengthInMeters="0.00" maxJamLengthInVehicles="0" maxJamLengthInMeters="0.00" jamLengthInVehiclesSum="0" jamLengthInMetersSum="0.00" meanHaltingDuration="0.00" maxHaltingDuration="0.00" haltingDurationSum="0.00" meanIntervalHaltingDuration="0.00" maxIntervalHaltingDuration="0.00" intervalHaltingDurationSum="0.00" startedHalts="0.00" meanVehicleNumber="43.32" maxVehicleNumber="47" />
    <interval begin="300.00" end="360.00" id="ramp_eval_0_0" nVehContrib="17" flow="1020.00" occupancy="15.86" speed="8.99" length="5.00" nVehEntered="17"/>
    <interval begin="300.00" end="360.00" id="ramp_eval_2_0" nVehContrib="22" flow="1320.00" occupancy="18.88" speed="9.46" length="5.00" nVehEntered="21"/>
   <interval begin="300.00" end="360.00" id="ramp_eval_1_0" sampledSeconds="2361.39" nVehEntered="20" nVehLeft="22" nVehSeen="61" meanSpeed="9.21" meanTimeLoss="6.61" meanOccupancy="16.58" maxOccupancy="17.80" meanMaxJamLengthInVehicles="0.00" meanMaxJamLengthInMeters="0.00" maxJamLengthInVehicles="0" maxJamLengthInMeters="0.00" jamLengthInVehiclesSum="0" jamLengthInMetersSum="0.00" meanHaltingDuration="0.00" maxHaltingDuration="0.00" haltingDurationSum="0.00" meanIntervalHaltingDuration="0.00" maxIntervalHaltingDuration="0.00" intervalHaltingDurationSum="0.00" startedHalts="0.00" meanVehicleNumber="39.70" maxVehicleNumber="42" />
    <interval begin="360.00" end="420.00" id="ramp_eval_0_0" nVehContrib="21" flow="1260.00" occupancy="22.43" speed="7.89" length="5.00" nVehEntered="21"/>
    <interval begin="360.00" end="420.00" id="ramp_eval_2_0" nVehContrib="19" flow="1140.00" occupancy="17.82" speed="8.91" length="5.00" nVehEntered="19"/>
   <interval begin="360.00" end="420.00" id="ramp_eval_1_0" sampledSeconds="2457.44" nVehEntered="18" nVehLeft="15" nVehSeen="57" meanSpeed="8.54" meanTimeLoss="9.78" meanOccupancy="17.30" maxOccupancy="18.99" meanMaxJamLengthInVehicles="0.00" meanMaxJamLengthInMeters="0.00" maxJamLengthInVehicles="0" maxJamLengthInMeters="0.00" jamLengthInVehiclesSum="0" jamLengthInMetersSum="0.00" meanHaltingDuration="0.00" maxHaltingDuration="0.00" haltingDurationSum="0.00" meanIntervalHaltingDuration="0.00" maxIntervalHaltingDuration="0.00" intervalHaltingDurationSum="0.00" startedHalts="0.00" meanVehicleNumber="41.22" maxVehicleNumber="45" />
    <interval begin="420.00" end="480.00" id="ramp_eval_0_0" nVehContrib="20" flow="1200.00" occupancy="17.48" speed="9.62" length="5.00" nVehEntered="20"/>
    <interval begin="420.00" end="480.00" id="ramp_eval_2_0" nVehContrib="10" flow="600.00" occupancy="10.58" speed="7.94" length="5.00" nVehEntered="10"/>
   <interval begin="420.00" end="480.00" id="ramp_eval_1_0" sampledSeconds="2523.71" nVehEntered="15" nVehLeft="10" nVehSeen="57" meanSpeed="8.49" meanTimeLoss="10.31" meanOccupancy="17.80" maxOccupancy="19.92" meanMaxJamLengthInVehicles="0.00" meanMaxJamLengthInMeters="0.00" maxJamLengthInVehicles="0" maxJamLengthInMeters="0.00" jamLengthInVehiclesSum="0" jamLengthInMetersSum="0.00" meanHaltingDuration="0.00" maxHaltingDuration="0.00" haltingDurationSum="0.00" meanIntervalHaltingDuration="0.00" maxIntervalHaltingDuration="0.00" intervalHaltingDurationSum="0.00" startedHalts="0.00" meanVehicleNumber="42.25" maxVehicleNumber="48" />
    <interval begin="480.00" end="540.00" id="ramp_eval_0_0" nVehContrib="15" flow="900.00" occupancy="14.95" speed="8.41" length="5.00" nVehEntered="15"/>
    <interval begin="480.00" end="540.00" id="ramp_eval_2_0" nVehContrib="24" flow="1440.00" occupancy="25.45" speed="7.97" length="5.00" nVehEntered="25"/>
   <interval begin="480.00" end="540.00" id="ramp_eval_1_0" sampledSeconds="2671.71" nVehEntered="21" nVehLeft="24" nVehSeen="68" meanSpeed="8.41" meanTimeLoss="9.04" meanOccupancy="18.76" maxOccupancy="19.92" meanMaxJamLengthInVehicles="0.00" meanMaxJamLengthInMeters="0.00" maxJamLengthInVehicles="0" maxJamLengthInMeters="0.00" jamLengthInVehiclesSum="0" jamLengthInMetersSum="0.00" meanHaltingDuration="1.00" maxHaltingDuration="1.00" haltingDurationSum="1.00" meanIntervalHaltingDuration="1.00" maxIntervalHaltingDuration="1.00" intervalHaltingDurationSum="1.00" startedHalts="1.00" meanVehicleNumber="44.88" maxVehicleNumber="48" />
    <interval begin="540.00" end="600.00" id="ramp_eval_0_0" nVehContrib="24" flow="1440.00" occupancy="22.17" speed="9.16" length="5.00" nVehEntered="24"/>
    <interval begin="540.00" end="600.00" id="ramp_eval_2_0" nVehContrib="15" flow="900.00" occupancy="15.25" speed="8.21" length="5.00" nVehEntered="14"/>
   <interval begin="540.00" end="600.00" id="ramp_eval_1_0" sampledSeconds="2443.86" nVehEntered="19" nVehLeft="19" nVehSeen="63" meanSpeed="8.66" meanTimeLoss="7.94" meanOccupancy="17.18" maxOccupancy="18.64" meanMaxJamLengthInVehicles="0.00" meanMaxJamLengthInMeters="0.00" maxJamLengthInVehicles="0" maxJamLengthInMeters="0.00" jamLengthInVehiclesSum="0" jamLengthInMetersSum="0.00" meanHaltingDuration="0.00" maxHaltingDuration="0.00" haltingDurationSum="0.00" meanIntervalHaltingDuration="0.00" maxIntervalHaltingDuration="0.00" intervalHaltingDurationSum="0.00" startedHalts="0.00" meanVehicleNumber="40.95" maxVehicleNumber="44" />
    <interval begin="600.00" end="660.00" id="ramp_eval_0_0" nVehContrib="17" flow="1020.00" occupancy="15.13" speed="9.45" length="5.00" nVehEntered="17"/>
    <interval begin="600.00" end="660.00" id="ramp_eval_2_0" nVehContrib="21" flow="1260.00" occupancy="22.02" speed="8.06" length="5.00" nVehEntered="22"/>
   <interval begin="600.00" end="660.00" id="ramp_eval_1_0" sampledSeconds="2815.52" nVehEntered="19" nVehLeft="18" nVehSeen="63" meanSpeed="8.75" meanTimeLoss="9.13" meanOccupancy="19.82" maxOccupancy="20.94" meanMaxJamLengthInVehicles="0.13" meanMaxJamLengthInMeters="0.67" maxJamLengthInVehicles="1" maxJamLengthInMeters="5.00" jamLengthInVehiclesSum="8" jamLengthInMetersSum="40.00" meanHaltingDuration="9.00" maxHaltingDuration="9.00" haltingDurationSum="9.00" meanIntervalHaltingDuration="9.00" maxIntervalHaltingDuration="9.00" intervalHaltingDurationSum="9.00" startedHalts="2.00" meanVehicleNumber="47.25" maxVehicleNumber="51" />
    <interval begin="660.00" end="720.00" id="ramp_eval_0_0" nVehContrib="15" flow="900.00" occupancy="13.61" speed="9.48" length="5.00" nVehEntered="16"/>
    <interval begin="660.00" end="720.00" id="ramp_eval_2_0" nVehContrib="20" flow="1200.00" occupancy="18.80" speed="8.83" length="5.00" nVehEntered="19"/>
   <interval begin="660.00" end="720.00" id="ramp_eval_1_0" sampledSeconds="2484.48" nVehEntered="20" nVehLeft="19" nVehSeen="65" meanSpeed="8.90" meanTimeLoss="7.69" meanOccupancy="17.45" maxOccupancy="19.35" meanMaxJamLengthInVehicles="0.00" meanMaxJamLengthInMeters="0.00" maxJamLengthInVehicles="0" maxJamLengthInMeters="0.00" jamLengthInVehiclesSum="0" jamLengthInMetersSum="0.00" meanHaltingDuration="1.00" maxHaltingDuration="1.00" haltingDurationSum="6.00" meanIntervalHaltingDuration="1.00" maxIntervalHaltingDuration="1.00" intervalHaltingDurationSum="6.00" startedHalts="7.00" meanVehicleNumber="41.75" maxVehicleNumber="46" />
    <interval begin="720.00" end="780.00" id="ramp_eval_0_0" nVehContrib="24" flow="1440.00" occupancy="22.86" speed="8.79" length="5.00" nVehEntered="23"/>
    <interval begin="720.00" end="780.00" id="ramp_eval_2_0" nVehContrib="20" flow="1200.00" occupancy="17.86" speed="9.39" length="5.00" nVehEntered="20"/>
   <interval begin="720.00" end="780.00" id="ramp_eval_1_0" sampledSeconds="2475.65" nVehEntered="17" nVehLeft="20" nVehSeen="63" meanSpeed="8.33" meanTimeLoss="9.93" meanOccupancy="17.38" maxOccupancy="19.28" meanMaxJamLengthInVehicles="1.68" meanMaxJamLengthInMeters="11.74" maxJamLengthInVehicles="8" maxJamLengthInMeters="58.82" jamLengthInVehiclesSum="101" jamLengthInMetersSum="704.60" meanHaltingDuration="13.25" maxHaltingDuration="22.00" haltingDurationSum="106.00" meanIntervalHaltingDuration="13.25" maxIntervalHaltingDuration="22.00" intervalHaltingDurationSum="106.00" startedHalts="9.00" meanVehicleNumber="41.50" maxVehicleNumber="46" />
    <interval begin="780.00" end="840.00" id="ramp_eval_0_0" nVehContrib="19" flow="1140.00" occupancy="17.98" speed="8.91" length="5.00" nVehEntered="19"/>
    <interval begin="780.00" end="840.00" id="ramp_eval_2_0" nVehContrib="12" flow="720.00" occupancy="14.00" speed="7.32" length="5.00" nVehEntered="13"/>
   <interval begin="780.00" end="840.00" id="ramp_eval_1_0" sampledSeconds="2830.77" nVehEntered="20" nVehLeft="12" nVehSeen="63" meanSpeed="8.14" meanTimeLoss="11.74" meanOccupancy="19.94" maxOccupancy="22.46" meanMaxJamLengthInVehicles="0.38" meanMaxJamLengthInMeters="2.58" maxJamLengthInVehicles="6" maxJamLengthInMeters="44.49" jamLengthInVehiclesSum="23" jamLengthInMetersSum="155.07" meanHaltingDuration="9.78" maxHaltingDuration="14.00" haltingDurationSum="88.00" meanIntervalHaltingDuration="2.78" maxIntervalHaltingDuration="6.00" intervalHaltingDurationSum="25.00" startedHalts="4.00" meanVehicleNumber="47.40" maxVehicleNumber="53" />
    <interval begin="840.00" end="900.00" id="ramp_eval_0_0" nVehContrib="18" flow="1080.00" occupancy="15.49" speed="9.72" length="5.00" nVehEntered="18"/>
    <interval begin="840.00" end="900.00" id="ramp_eval_2_0" nVehContrib="24" flow="1440.00" occupancy="25.22" speed="8.00" length="5.00" nVehEntered="23"/>
   <interval begin="840.00" end="900.00" id="ramp_eval_1_0" sampledSeconds="2761.35" nVehEntered="19" nVehLeft="26" nVehSeen="70" meanSpeed="8.61" meanTimeLoss="8.62" meanOccupancy="19.36" maxOccupancy="21.19" meanMaxJamLengthInVehicles="0.10" meanMaxJamLengthInMeters="0.42" maxJamLengthInVehicles="1" maxJamLengthInMeters="5.00" jamLengthInVehiclesSum="6" jamLengthInMetersSum="25.00" meanHaltingDuration="1.71" maxHaltingDuration="3.00" haltingDurationSum="12.00" meanIntervalHaltingDuration="1.71" maxIntervalHaltingDuration="3.00" intervalHaltingDurationSum="12.00" startedHalts="8.00" meanVehicleNumber="46.42" maxVehicleNumber="51" />
