<?xml version="1.0" encoding="UTF-8"?>

<!-- generated on 02/26/19 19:18:36 by Eclipse SUMO Version 1.0.1
<configuration xmlns:xsi="http://www.w3.org/2001/XMLSchema-instance" xsi:noNamespaceSchemaLocation="http://sumo.dlr.de/xsd/sumoConfiguration.xsd">

    <input>
        <net-file value="./project/ramp.net.xml"/>
        <route-files value="./project/ramp.rou.xml"/>
        <additional-files value="./project/ramp.add.xml"/>
    </input>

    <time>
        <begin value="0"/>
    </time>

    <report>
        <verbose value="true"/>
        <no-step-log value="true"/>
    </report>

    <traci_server>
        <remote-port value="31988"/>
    </traci_server>

    <random_number>
        <seed value="348913310"/>
    </random_number>

    <gui_only>
        <quit-on-end value="true"/>
        <start value="true"/>
    </gui_only>

</configuration>
-->

<detector xmlns:xsi="http://www.w3.org/2001/XMLSchema-instance" xsi:noNamespaceSchemaLocation="http://sumo.dlr.de/xsd/det_e1_file.xsd">
    <interval begin="0.00" end="60.00" id="ramp_eval_0_0" nVehContrib="3" flow="180.00" occupancy="2.12" speed="11.82" length="5.00" nVehEntered="3"/>
    <interval begin="0.00" end="60.00" id="ramp_eval_2_0" nVehContrib="0" flow="0.00" occupancy="0.00" speed="-1.00" length="-1.00" nVehEntered="0"/>
   <interval begin="0.00" end="60.00" id="mainline_up_0_2" sampledSeconds="0.00" nVehEntered="0" nVehLeft="0" nVehSeen="0" meanSpeed="-1.00" meanTimeLoss="-1.00" meanOccupancy="0.00" maxOccupancy="0.00" meanMaxJamLengthInVehicles="0.00" meanMaxJamLengthInMeters="0.00" maxJamLengthInVehicles="0" maxJamLengthInMeters="0.00" jamLengthInVehiclesSum="0" jamLengthInMetersSum="0.00" meanHaltingDuration="0.00" maxHaltingDuration="0.00" haltingDurationSum="0.00" meanIntervalHaltingDuration="0.00" maxIntervalHaltingDuration="0.00" intervalHaltingDurationSum="0.00" startedHalts="0.00" meanVehicleNumber="0.00" maxVehicleNumber="0" />
   <interval begin="0.00" end="60.00" id="mainline_up_1_2" sampledSeconds="0.00" nVehEntered="0" nVehLeft="0" nVehSeen="0" meanSpeed="-1.00" meanTimeLoss="-1.00" meanOccupancy="0.00" maxOccupancy="0.00" meanMaxJamLengthInVehicles="0.00" meanMaxJamLengthInMeters="0.00" maxJamLengthInVehicles="0" maxJamLengthInMeters="0.00" jamLengthInVehiclesSum="0" jamLengthInMetersSum="0.00" meanHaltingDuration="0.00" maxHaltingDuration="0.00" haltingDurationSum="0.00" meanIntervalHaltingDuration="0.00" maxIntervalHaltingDuration="0.00" intervalHaltingDurationSum="0.00" startedHalts="0.00" meanVehicleNumber="0.00" maxVehicleNumber="0" />
   <interval begin="0.00" end="60.00" id="mainline_up_2_2" sampledSeconds="0.00" nVehEntered="0" nVehLeft="0" nVehSeen="0" meanSpeed="-1.00" meanTimeLoss="-1.00" meanOccupancy="0.00" maxOccupancy="0.00" meanMaxJamLengthInVehicles="0.00" meanMaxJamLengthInMeters="0.00" maxJamLengthInVehicles="0" maxJamLengthInMeters="0.00" jamLengthInVehiclesSum="0" jamLengthInMetersSum="0.00" meanHaltingDuration="0.00" maxHaltingDuration="0.00" haltingDurationSum="0.00" meanIntervalHaltingDuration="0.00" maxIntervalHaltingDuration="0.00" intervalHaltingDurationSum="0.00" startedHalts="0.00" meanVehicleNumber="0.00" maxVehicleNumber="0" />
    <interval begin="60.00" end="120.00" id="ramp_eval_0_0" nVehContrib="17" flow="1020.00" occupancy="15.61" speed="9.42" length="5.00" nVehEntered="18"/>
    <interval begin="60.00" end="120.00" id="ramp_eval_2_0" nVehContrib="2" flow="120.00" occupancy="1.45" speed="11.51" length="5.00" nVehEntered="2"/>
   <interval begin="60.00" end="120.00" id="mainline_up_0_2" sampledSeconds="231.88" nVehEntered="11" nVehLeft="4" nVehSeen="11" meanSpeed="20.07" meanTimeLoss="0.49" meanOccupancy="2.46" maxOccupancy="4.40" meanMaxJamLengthInVehicles="0.00" meanMaxJamLengthInMeters="0.00" maxJamLengthInVehicles="0" maxJamLengthInMeters="0.00" jamLengthInVehiclesSum="0" jamLengthInMetersSum="0.00" meanHaltingDuration="0.00" maxHaltingDuration="0.00" haltingDurationSum="0.00" meanIntervalHaltingDuration="0.00" maxIntervalHaltingDuration="0.00" intervalHaltingDurationSum="0.00" startedHalts="0.00" meanVehicleNumber="3.97" maxVehicleNumber="7" />
   <interval begin="60.00" end="120.00" id="mainline_up_1_2" sampledSeconds="281.79" nVehEntered="17" nVehLeft="5" nVehSeen="17" meanSpeed="21.66" meanTimeLoss="0.70" meanOccupancy="2.99" maxOccupancy="8.17" meanMaxJamLengthInVehicles="0.00" meanMaxJamLengthInMeters="0.00" maxJamLengthInVehicles="0" maxJamLengthInMeters="0.00" jamLengthInVehiclesSum="0" jamLengthInMetersSum="0.00" meanHaltingDuration="0.00" maxHaltingDuration="0.00" haltingDurationSum="0.00" meanIntervalHaltingDuration="0.00" maxIntervalHaltingDuration="0.00" intervalHaltingDurationSum="0.00" startedHalts="0.00" meanVehicleNumber="4.82" maxVehicleNumber="13" />
   <interval begin="60.00" end="120.00" id="mainline_up_2_2" sampledSeconds="239.84" nVehEntered="16" nVehLeft="3" nVehSeen="16" meanSpeed="23.13" meanTimeLoss="0.41" meanOccupancy="2.55" maxOccupancy="8.17" meanMaxJamLengthInVehicles="0.00" meanMaxJamLengthInMeters="0.00" maxJamLengthInVehicles="0" maxJamLengthInMeters="0.00" jamLengthInVehiclesSum="0" jamLengthInMetersSum="0.00" meanHaltingDuration="0.00" maxHaltingDuration="0.00" haltingDurationSum="0.00" meanIntervalHaltingDuration="0.00" maxIntervalHaltingDuration="0.00" intervalHaltingDurationSum="0.00" startedHalts="0.00" meanVehicleNumber="4.12" maxVehicleNumber="13" />
    <interval begin="120.00" end="180.00" id="ramp_eval_0_0" nVehContrib="20" flow="1200.00" occupancy="16.62" speed="9.74" length="5.00" nVehEntered="19"/>
    <interval begin="120.00" end="180.00" id="ramp_eval_2_0" nVehContrib="12" flow="720.00" occupancy="10.69" speed="9.39" length="5.00" nVehEntered="12"/>
   <interval begin="120.00" end="180.00" id="mainline_up_0_2" sampledSeconds="672.37" nVehEntered="21" nVehLeft="14" nVehSeen="28" meanSpeed="18.04" meanTimeLoss="1.62" meanOccupancy="7.03" maxOccupancy="8.82" meanMaxJamLengthInVehicles="0.00" meanMaxJamLengthInMeters="0.00" maxJamLengthInVehicles="0" maxJamLengthInMeters="0.00" jamLengthInVehiclesSum="0" jamLengthInMetersSum="0.00" meanHaltingDuration="0.00" maxHaltingDuration="0.00" haltingDurationSum="0.00" meanIntervalHaltingDuration="0.00" maxIntervalHaltingDuration="0.00" intervalHaltingDurationSum="0.00" startedHalts="0.00" meanVehicleNumber="11.47" maxVehicleNumber="15" />
   <interval begin="120.00" end="180.00" id="mainline_up_1_2" sampledSeconds="854.46" nVehEntered="27" nVehLeft="26" nVehSeen="39" meanSpeed="19.50" meanTimeLoss="1.98" meanOccupancy="8.89" maxOccupancy="11.31" meanMaxJamLengthInVehicles="0.00" meanMaxJamLengthInMeters="0.00" maxJamLengthInVehicles="0" maxJamLengthInMeters="0.00" jamLengthInVehiclesSum="0" jamLengthInMetersSum="0.00" meanHaltingDuration="0.00" maxHaltingDuration="0.00" haltingDurationSum="0.00" meanIntervalHaltingDuration="0.00" maxIntervalHaltingDuration="0.00" intervalHaltingDurationSum="0.00" startedHalts="0.00" meanVehicleNumber="14.63" maxVehicleNumber="19" />
   <interval begin="120.00" end="180.00" id="mainline_up_2_2" sampledSeconds="1015.39" nVehEntered="35" nVehLeft="26" nVehSeen="48" meanSpeed="21.28" meanTimeLoss="1.86" meanOccupancy="10.62" maxOccupancy="13.82" meanMaxJamLengthInVehicles="0.00" meanMaxJamLengthInMeters="0.00" maxJamLengthInVehicles="0" maxJamLengthInMeters="0.00" jamLengthInVehiclesSum="0" jamLengthInMetersSum="0.00" meanHaltingDuration="0.00" maxHaltingDuration="0.00" haltingDurationSum="0.00" meanIntervalHaltingDuration="0.00" maxIntervalHaltingDuration="0.00" intervalHaltingDurationSum="0.00" startedHalts="0.00" meanVehicleNumber="17.38" maxVehicleNumber="22" />
    <interval begin="180.00" end="240.00" id="ramp_eval_0_0" nVehContrib="19" flow="1140.00" occupancy="16.54" speed="9.64" length="5.00" nVehEntered="19"/>
    <interval begin="180.00" end="240.00" id="ramp_eval_2_0" nVehContrib="19" flow="1140.00" occupancy="17.03" speed="9.30" length="5.00" nVehEntered="19"/>
   <interval begin="180.00" end="240.00" id="mainline_up_0_2" sampledSeconds="883.73" nVehEntered="20" nVehLeft="17" nVehSeen="34" meanSpeed="17.58" meanTimeLoss="2.99" meanOccupancy="9.22" maxOccupancy="10.68" meanMaxJamLengthInVehicles="0.00" meanMaxJamLengthInMeters="0.00" maxJamLengthInVehicles="0" maxJamLengthInMeters="0.00" jamLengthInVehiclesSum="0" jamLengthInMetersSum="0.00" meanHaltingDuration="0.00" maxHaltingDuration="0.00" haltingDurationSum="0.00" meanIntervalHaltingDuration="0.00" maxIntervalHaltingDuration="0.00" intervalHaltingDurationSum="0.00" startedHalts="0.00" meanVehicleNumber="14.93" maxVehicleNumber="17" />
   <interval begin="180.00" end="240.00" id="mainline_up_1_2" sampledSeconds="1180.99" nVehEntered="32" nVehLeft="26" nVehSeen="45" meanSpeed="18.80" meanTimeLoss="3.38" meanOccupancy="12.30" maxOccupancy="14.21" meanMaxJamLengthInVehicles="0.00" meanMaxJamLengthInMeters="0.00" maxJamLengthInVehicles="0" maxJamLengthInMeters="0.00" jamLengthInVehiclesSum="0" jamLengthInMetersSum="0.00" meanHaltingDuration="0.00" maxHaltingDuration="0.00" haltingDuratio="0.00" meanIntervalHaltingDuration="0.00" maxIntervalHaltingDuration="0.00" intervalHaltingDurationSum="0.00" startedHalts="0.00" meanVehicleNumber="19.63" maxVehicleNumber="23" />
   <interval begin="180.00" end="240.00" id="mainline_up_2_2" sampledSeconds="1243.29" nVehEntered="33" nVehLeft="31" nVehSeen="51" meanSpeed="21.31" meanTimeLoss="2.77" meanOccupancy="12.95" maxOccupancy="14.55" meanMaxJamLengthInVehicles="0.00" meanMaxJamLengthInMeters="0.00" maxJamLengthInVehicles="0" maxJamLengthInMeters="0.00" jamLengthInVehiclesSum="0" jamLengthInMetersSum="0.00" meanHaltingDuration="0.00" maxHaltingDuration="0.00" haltingDurationSum="0.00" meanIntervalHaltingDuration="0.00" maxIntervalHaltingDuration="0.00" intervalHaltingDurationSum="0.00" startedHalts="0.00" meanVehicleNumber="21.27" maxVehicleNumber="24" />
    <interval begin="240.00" end="300.00" id="ramp_eval_0_0" nVehContrib="20" flow="1200.00" occupancy="18.78" speed="8.90" length="5.00" nVehEntered="20"/>
    <interval begin="240.00" end="300.00" id="ramp_eval_2_0" nVehContrib="12" flow="720.00" occupancy="11.32" speed="8.93" length="5.00" nVehEntered="12"/>
   <interval begin="240.00" end="300.00" id="mainline_up_0_2" sampledSeconds="628.61" nVehEntered="17" nVehLeft="15" nVehSeen="27" meanSpeed="17.28" meanTimeLoss="2.16" meanOccupancy="6.50" maxOccupancy="9.41" meanMaxJamLengthInVehicles="0.12" meanMaxJamLengthInMeters="0.61" maxJamLengthInVehicles="2" maxJamLengthInMeters="13.51" jamLengthInVehiclesSum="7" jamLengthInMetersSum="36.83" meanHaltingDuration="4.50" maxHaltingDuration="5.00" haltingDurationSum="9.00" meanIntervalHaltingDuration="4.50" maxIntervalHaltingDuration="5.00" intervalHaltingDurationSum="9.00" startedHalts="2.00" meanVehicleNumber="10.73" maxVehicleNumber="15" />
   <interval begin="240.00" end="300.00" id="mainline_up_1_2" sampledSeconds="1111.21" nVehEntered="35" nVehLeft="33" nVehSeen="53" meanSpeed="19.62" meanTimeLoss="2.07" meanOccupancy="11.57" maxOccupancy="14.45" meanMaxJamLengthInVehicles="0.00" meanMaxJamLengthInMeters="0.00" maxJamLengthInVehicles="0" maxJamLengthInMeters="0.00" jamLengthInVehiclesSum="0" jamLengthInMetersSum="0.00" meanHaltingDuration="0.00" maxHaltingDuration="0.00" haltingDurationSum="0.00" meanIntervalHaltingDuration="0.00" maxIntervalHaltingDuration="0.00" intervalHaltingDurationSum="0.00" startedHalts="0.00" meanVehicleNumber="18.97" maxVehicleNumber="23" />
   <interval begin="240.00" end="300.00" id="mainline_up_2_2" sampledSeconds="1233.80" nVehEntered="39" nVehLeft="35" nVehSeen="59" meanSpeed="21.02" meanTimeLoss="2.42" meanOccupancy="12.85" maxOccupancy="15.70" meanMaxJamLengthInVehicles="0.00" meanMaxJamLengthInMeters="0.00" maxJamLengthInVehicles="0" maxJamLengthInMeters="0.00" jamLengthInVehiclesSum="0" jamLengthInMetersSum="0.00" meanHaltingDuration="0.00" maxHaltingDuration="0.00" haltingDurationSum="0.00" meanIntervalHaltingDuration="0.00" maxIntervalHaltingDuration="0.00" intervalHaltingDurationSum="0.00" startedHalts="0.00" meanVehicleNumber="21.15" maxVehicleNumber="26" />
</detector>
>
