<?xml version="1.0" encoding="UTF-8"?>

<!-- generated on 02/23/19 00:12:32 by Eclipse SUMO Version 1.0.1
<configuration xmlns:xsi="http://www.w3.org/2001/XMLSchema-instance" xsi:noNamespaceSchemaLocation="http://sumo.dlr.de/xsd/sumoConfiguration.xsd">

    <input>
        <net-file value="./project/ramp.net.xml"/>
        <route-files value="./project/ramp.rou.xml"/>
        <additional-files value="./project/ramp.add.xml"/>
    </input>

    <time>
        <begin value="0"/>
    </time>

    <report>
        <verbose value="true"/>
        <no-step-log value="true"/>
    </report>

    <traci_server>
        <remote-port value="57478"/>
    </traci_server>

    <random_number>
        <seed value="443673570"/>
    </random_number>

    <gui_only>
        <quit-on-end value="true"/>
        <start value="true"/>
    </gui_only>

</configuration>
-->

<detector xmlns:xsi="http://www.w3.org/2001/XMLSchema-instance" xsi:noNamespaceSchemaLocation="http://sumo.dlr.de/xsd/det_e1_file.xsd">
    <interval begin="0.00" end="60.00" id="ramp_eval_0_0" nVehContrib="2" flow="120.00" occupancy="1.61" speed="10.35" length="5.00" nVehEntered="2"/>
    <interval begin="0.00" end="60.00" id="ramp_eval_2_0" nVehContrib="0" flow="0.00" occupancy="0.00" speed="-1.00" length="-1.00" nVehEntered="0"/>
   <interval begin="0.00" end="60.00" id="mainline_up_0_0" sampledSeconds="404.84" nVehEntered="23" nVehLeft="12" nVehSeen="23" meanSpeed="18.91" meanTimeLoss="2.18" meanOccupancy="4.86" maxOccupancy="10.00" meanMaxJamLengthInVehicles="0.00" meanMaxJamLengthInMeters="0.00" maxJamLengthInVehicles="0" maxJamLengthInMeters="0.00" jamLengthInVehiclesSum="0" jamLengthInMetersSum="0.00" meanHaltingDuration="0.00" maxHaltingDuration="0.00" haltingDurationSum="0.00" meanIntervalHaltingDuration="0.00" maxIntervalHaltingDuration="0.00" intervalHaltingDurationSum="0.00" startedHalts="0.00" meanVehicleNumber="6.97" maxVehicleNumber="14" />
   <interval begin="0.00" end="60.00" id="mainline_up_1_0" sampledSeconds="352.00" nVehEntered="26" nVehLeft="11" nVehSeen="26" meanSpeed="18.89" meanTimeLoss="1.53" meanOccupancy="4.22" maxOccupancy="11.29" meanMaxJamLengthInVehicles="0.00" meanMaxJamLengthInMeters="0.00" maxJamLengthInVehicles="0" maxJamLengthInMeters="0.00" jamLengthInVehiclesSum="0" jamLengthInMetersSum="0.00" meanHaltingDuration="0.00" maxHaltingDuration="0.00" haltingDurationSum="0.00" meanIntervalHaltingDuration="0.00" maxIntervalHaltingDuration="0.00" intervalHaltingDurationSum="0.00" startedHalts="0.00" meanVehicleNumber="6.03" maxVehicleNumber="16" />
   <interval begin="0.00" end="60.00" id="mainline_up_2_0" sampledSeconds="369.76" nVehEntered="25" nVehLeft="10" nVehSeen="25" meanSpeed="20.80" meanTimeLoss="1.47" meanOccupancy="4.45" maxOccupancy="12.57" meanMaxJamLengthInVehicles="0.00" meanMaxJamLengthInMeters="0.00" maxJamLengthInVehicles="0" maxJamLengthInMeters="0.00" jamLengthInVehiclesSum="0" jamLengthInMetersSum="0.00" meanHaltingDuration="0.00" maxHaltingDuration="0.00" haltingDurationSum="0.00" meanIntervalHaltingDuration="0.00" maxIntervalHaltingDuration="0.00" intervalHaltingDurationSum="0.00" startedHalts="0.00" meanVehicleNumber="6.35" maxVehicleNumber="18" />
   <interval begin="0.00" end="60.00" id="mainline_up_0_1" sampledSeconds="78.57" nVehEntered="5" nVehLeft="0" nVehSeen="5" meanSpeed="22.59" meanTimeLoss="0.28" meanOccupancy="0.95" maxOccupancy="3.57" meanMaxJamLengthInVehicles="0.00" meanMaxJamLengthInMeters="0.00" maxJamLengthInVehicles="0" maxJamLengthInMeters="0.00" jamLengthInVehiclesSum="0" jamLengthInMetersSum="0.00" meanHaltingDuration="0.00" maxHaltingDuration="0.00" haltingDurationSum="0.00" meanIntervalHaltingDuration="0.00" maxIntervalHaltingDuration="0.00" intervalHaltingDurationSum="0.00" startedHalts="0.00" meanVehicleNumber="1.33" maxVehicleNumber="5" />
   <interval begin="0.00" end="60.00" id="mainline_up_1_1" sampledSeconds="15.19" nVehEntered="2" nVehLeft="0" nVehSeen="2" meanSpeed="24.63" meanTimeLoss="0.12" meanOccupancy="0.19" maxOccupancy="1.43" meanMaxJamLengthInVehicles="0.00" meanMaxJamLengthInMeters="0.00" maxJamLengthInVehicles="0" maxJamLengthInMeters="0.00" jamLengthInVehiclesSum="0" jamLengthInMetersSum="0.00" meanHaltingDuration="0.00" maxHaltingDuration="0.00" haltingDurationSum="0.00" meanIntervalHaltingDuration="0.00" maxIntervalHaltingDuration="0.00" intervalHaltingDurationSum="0.00" startedHalts="0.00" meanVehicleNumber="0.27" maxVehicleNumber="2" />
   <interval begin="0.00" end="60.00" id="mainline_up_2_1" sampledSeconds="14.89" nVehEntered="4" nVehLeft="1" nVehSeen="4" meanSpeed="24.64" meanTimeLoss="0.06" meanOccupancy="0.20" maxOccupancy="2.14" meanMaxJamLengthInVehicles="0.00" meanMaxJamLengthInMeters="0.00" maxJamLengthInVehicles="0" maxJamLengthInMeters="0.00" jamLengthInVehiclesSum="0" jamLengthInMetersSum="0.00" meanHaltingDuration="0.00" maxHaltingDuration="0.00" haltingDurationSum="0.00" meanIntervalHaltingDuration="0.00" maxIntervalHaltingDuration="0.00" intervalHaltingDurationSum="0.00" startedHalts="0.00" meanVehicleNumber="0.28" maxVehicleNumber="3" />
   <interval begin="0.00" end="60.00" id="mainline_up_0_2" sampledSeconds="0.00" nVehEntered="0" nVehLeft="0" nVehSeen="0" meanSpeed="-1.00" meanTimeLoss="-1.00" meanOccupancy="0.00" maxOccupancy="0.00" meanMaxJamLengthInVehicles="0.00" meanMaxJamLengthInMeters="0.00" maxJamLengthInVehicles="0" maxJamLengthInMeters="0.00" jamLengthInVehiclesSum="0" jamLengthInMetersSum="0.00" meanHaltingDuration="0.00" maxHaltingDuration="0.00" haltingDurationSum="0.00" meanIntervalHaltingDuration="0.00" maxIntervalHaltingDuration="0.00" intervalHaltingDurationSum="0.00" startedHalts="0.00" meanVehicleNumber="0.00" maxVehicleNumber="0" />
   <interval begin="0.00" end="60.00" id="mainline_up_1_2" sampledSeconds="0.00" nVehEntered="0" nVehLeft="0" nVehSeen="0" meanSpeed="-1.00" meanTimeLoss="-1.00" meanOccupancy="0.00" maxOccupancy="0.00" meanMaxJamLengthInVehicles="0.00" meanMaxJamLengthInMeters="0.00" maxJamLengthInVehicles="0" maxJamLengthInMeters="0.00" jamLengthInVehiclesSum="0" jamLengthInMetersSum="0.00" meanHaltingDuration="0.00" maxHaltingDuration="0.00" haltingDurationSum="0.00" meanIntervalHaltingDuration="0.00" maxIntervalHaltingDuration="0.00" intervalHaltingDurationSum="0.00" startedHalts="0.00" meanVehicleNumber="0.00" maxVehicleNumber="0" />
   <interval begin="0.00" end="60.00" id="mainline_up_2_2" sampledSeconds="0.00" nVehEntered="0" nVehLeft="0" nVehSeen="0" meanSpeed="-1.00" meanTimeLoss="-1.00" meanOccupancy="0.00" maxOccupancy="0.00" meanMaxJamLengthInVehicles="0.00" meanMaxJamLengthInMeters="0.00" maxJamLengthInVehicles="0" maxJamLengthInMeters="0.00" jamLengthInVehiclesSum="0" jamLengthInMetersSum="0.00" meanHaltingDuration="0.00" maxHaltingDuration="0.00" haltingDurationSum="0.00" meanIntervalHaltingDuration="0.00" maxIntervalHaltingDuration="0.00" intervalHaltingDurationSum="0.00" startedHalts="0.00" meanVehicleNumber="0.00" maxVehicleNumber="0" />
    <interval begin="60.00" end="120.00" id="ramp_eval_0_0" nVehContrib="22" flow="1320.00" occupancy="18.60" speed="9.87" length="5.00" nVehEntered="22"/>
    <interval begin="60.00" end="120.00" id="ramp_eval_2_0" nVehContrib="0" flow="0.00" occupancy="0.00" speed="-1.00" length="-1.00" nVehEntered="0"/>
   <interval begin="60.00" end="120.00" id="mainline_up_0_0" sampledSeconds="795.24" nVehEntered="29" nVehLeft="27" nVehSeen="40" meanSpeed="18.17" meanTimeLoss="2.62" meanOccupancy="9.43" maxOccupancy="11.43" meanMaxJamLengthInVehicles="0.00" meanMaxJamLengthInMeters="0.00" maxJamLengthInVehicles="0" maxJamLengthInMeters="0.00" jamLengthInVehiclesSum="0" jamLengthInMetersSum="0.00" meanHaltingDuration="0.00" maxHaltingDuration="0.00" haltingDurationSum="0.00" meanIntervalHaltingDuration="0.00" maxIntervalHaltingDuration="0.00" intervalHaltingDurationSum="0.00" startedHalts="0.00" meanVehicleNumber="13.57" maxVehicleNumber="16" />
   <interval begin="60.00" end="120.00" id="mainline_up_1_0" sampledSeconds="907.64" nVehEntered="40" nVehLeft="37" nVehSeen="55" meanSpeed="18.98" meanTimeLoss="1.92" meanOccupancy="10.71" maxOccupancy="12.86" meanMaxJamLengthInVehicles="0.00" meanMaxJamLengthInMeters="0.00" maxJamLengthInVehicles="0" maxJamLengthInMeters="0.00" jamLengthInVehiclesSum="0" jamLengthInMetersSum="0.00" meanHaltingDuration="0.00" maxHaltingDuration="0.00" haltingDurationSum="0.00" meanIntervalHaltingDuration="0.00" maxIntervalHaltingDuration="0.00" intervalHaltingDurationSum="0.00" startedHalts="0.00" meanVehicleNumber="15.55" maxVehicleNumber="19" />
   <interval begin="60.00" end="120.00" id="mainline_up_2_0" sampledSeconds="945.82" nVehEntered="35" nVehLeft="32" nVehSeen="50" meanSpeed="20.46" meanTimeLoss="1.81" meanOccupancy="11.14" maxOccupancy="13.57" meanMaxJamLengthInVehicles="0.00" meanMaxJamLengthInMeters="0.00" maxJamLengthInVehicles="0" maxJamLengthInMeters="0.00" jamLengthInVehiclesSum="0" jamLengthInMetersSum="0.00" meanHaltingDuration="0.00" maxHaltingDuration="0.00" haltingDurationSum="0.00" meanIntervalHaltingDuration="0.00" maxIntervalHaltingDuration="0.00" intervalHaltingDurationSum="0.00" startedHalts="0.00" meanVehicleNumber="16.23" maxVehicleNumber="19" />
   <interval begin="60.00" end="120.00" id="mainline_up_0_1" sampledSeconds="532.51" nVehEntered="22" nVehLeft="15" nVehSeen="27" meanSpeed="18.85" meanTimeLoss="1.93" meanOccupancy="6.32" maxOccupancy="10.82" meanMaxJamLengthInVehicles="0.00" meanMaxJamLengthInMeters="0.00" maxJamLengthInVehicles="0" maxJamLengthInMeters="0.00" jamLengthInVehiclesSum="0" jamLengthInMetersSum="0.00" meanHaltingDuration="0.00" maxHaltingDuration="0.00" haltingDurationSum="0.00" meanIntervalHaltingDuration="0.00" maxIntervalHaltingDuration="0.00" intervalHaltingDurationSum="0.00" startedHalts="0.00" meanVehicleNumber="9.07" maxVehicleNumber="16" />
   <interval begin="60.00" end="120.00" id="mainline_up_1_1" sampledSeconds="770.71" nVehEntered="34" nVehLeft="21" nVehSeen="36" meanSpeed="19.98" meanTimeLoss="1.70" meanOccupancy="9.19" maxOccupancy="12.86" meanMaxJamLengthInVehicles="0.00" meanMaxJamLengthInMeters="0.00" maxJamLengthInVehicles="0" maxJamLengthInMeters="0.00" jamLengthInVehiclesSum="0" jamLengthInMetersSum="0.00" meanHaltingDuration="0.00" maxHaltingDuration="0.00" haltingDurationSum="0.00" meanIntervalHaltingDuration="0.00" maxIntervalHaltingDuration="0.00" intervalHaltingDurationSum="0.00" startedHalts="0.00" meanVehicleNumber="13.17" maxVehicleNumber="18" />
   <interval begin="60.00" end="120.00" id="mainline_up_2_1" sampledSeconds="773.05" nVehEntered="33" nVehLeft="20" nVehSeen="36" meanSpeed="21.64" meanTimeLoss="1.35" meanOccupancy="9.25" maxOccupancy="13.71" meanMaxJamLengthInVehicles="0.00" meanMaxJamLengthInMeters="0.00" maxJamLengthInVehicles="0" maxJamLengthInMeters="0.00" jamLengthInVehiclesSum="0" jamLengthInMetersSum="0.00" meanHaltingDuration="0.00" maxHaltingDuration="0.00" haltingDurationSum="0.00" meanIntervalHaltingDuration="0.00" maxIntervalHaltingDuration="0.00" intervalHaltingDurationSum="0.00" startedHalts="0.00" meanVehicleNumber="13.27" maxVehicleNumber="20" />
   <interval begin="60.00" end="120.00" id="mainline_up_0_2" sampledSeconds="281.32" nVehEntered="14" nVehLeft="4" nVehSeen="14" meanSpeed="21.30" meanTimeLoss="0.93" meanOccupancy="2.97" maxOccupancy="6.28" meanMaxJamLengthInVehicles="0.00" meanMaxJamLengthInMeters="0.00" maxJamLengthInVehicles="0" maxJamLengthInMeters="0.00" jamLengthInVehiclesSum="0" jamLengthInMetersSum="0.00" meanHaltingDuration="0.00" maxHaltingDuration="0.00" haltingDurationSum="0.00" meanIntervalHaltingDuration="0.00" maxIntervalHaltingDuration="0.00" intervalHaltingDurationSum="0.00" startedHalts="0.00" meanVehicleNumber="4.82" maxVehicleNumber="10" />
   <interval begin="60.00" end="120.00" id="mainline_up_1_2" sampledSeconds="229.64" nVehEntered="16" nVehLeft="6" nVehSeen="16" meanSpeed="20.61" meanTimeLoss="0.97" meanOccupancy="2.45" maxOccupancy="6.91" meanMaxJamLengthInVehicles="0.00" meanMaxJamLengthInMeters="0.00" maxJamLengthInVehicles="0" maxJamLengthInMeters="0.00" jamLengthInVehiclesSum="0" jamLengthInMetersSum="0.00" meanHaltingDuration="0.00" maxHaltingDuration="0.00" haltingDurationSum="0.00" meanIntervalHaltingDuration="0.00" maxIntervalHaltingDuration="0.00" intervalHaltingDurationSum="0.00" startedHalts="0.00" meanVehicleNumber="3.95" maxVehicleNumber="11" />
   <interval begin="60.00" end="120.00" id="mainline_up_2_2" sampledSeconds="199.71" nVehEntered="15" nVehLeft="2" nVehSeen="15" meanSpeed="21.87" meanTimeLoss="0.83" meanOccupancy="2.15" maxOccupancy="8.17" meanMaxJamLengthInVehicles="0.00" meanMaxJamLengthInMeters="0.00" maxJamLengthInVehicles="0" maxJamLengthInMeters="0.00" jamLengthInVehiclesSum="0" jamLengthInMetersSum="0.00" meanHaltingDuration="0.00" maxHaltingDuration="0.00" haltingDurationSum="0.00" meanIntervalHaltingDuration="0.00" maxIntervalHaltingDuration="0.00" intervalHaltingDurationSum="0.00" startedHalts="0.00" meanVehicleNumber="3.43" maxVehicleNumber="13" />
    <interval begin="120.00" end="180.00" id="ramp_eval_0_0" nVehContrib="17" flow="1020.00" occupancy="16.17" speed="8.86" length="5.00" nVehEntered="17"/>
    <interval begin="120.00" end="180.00" id="ramp_eval_2_0" nVehContrib="18" flow="1080.00" occupancy="15.47" speed="9.72" length="5.00" nVehEntered="18"/>
   <interval begin="120.00" end="180.00" id="mainline_up_0_0" sampledSeconds="902.11" nVehEntered="26" nVehLeft="28" nVehSeen="39" meanSpeed="16.64" meanTimeLoss="4.64" meanOccupancy="10.68" maxOccupancy="12.86" meanMaxJamLengthInVehicles="0.00" meanMaxJamLengthInMeters="0.00" maxJamLengthInVehicles="0" maxJamLengthInMeters="0.00" jamLengthInVehiclesSum="0" jamLengthInMetersSum="0.00" meanHaltingDuration="0.00" maxHaltingDuration="0.00" haltingDurationSum="0.00" meanIntervalHaltingDuration="0.00" maxIntervalHaltingDuration="0.00" intervalHaltingDurationSum="0.00" startedHalts="0.00" meanVehicleNumber="15.37" maxVehicleNumber="19" />
   <interval begin="120.00" end="180.00" id="mainline_up_1_0" sampledSeconds="1166.99" nVehEntered="38" nVehLeft="41" nVehSeen="56" meanSpeed="16.92" meanTimeLoss="4.63" meanOccupancy="13.78" maxOccupancy="15.76" meanMaxJamLengthInVehicles="0.00" meanMaxJamLengthInMeters="0.00" maxJamLengthInVehicles="0" maxJamLengthInMeters="0.00" jamLengthInVehiclesSum="0" jamLengthInMetersSum="0.00" meanHaltingDuration="0.00" maxHaltingDuration="0.00" haltingDurationSum="0.00" meanIntervalHaltingDuration="0.00" maxIntervalHaltingDuration="0.00" intervalHaltingDurationSum="0.00" startedHalts="0.00" meanVehicleNumber="19.90" maxVehicleNumber="23" />
   <interval begin="120.00" end="180.00" id="mainline_up_2_0" sampledSeconds="1189.88" nVehEntered="39" nVehLeft="38" nVehSeen="57" meanSpeed="18.95" meanTimeLoss="3.46" meanOccupancy="14.04" maxOccupancy="16.07" meanMaxJamLengthInVehicles="0.00" meanMaxJamLengthInMeters="0.00" maxJamLengthInVehicles="0" maxJamLengthInMeters="0.00" jamLengthInVehiclesSum="0" jamLengthInMetersSum="0.00" meanHaltingDuration="0.00" maxHaltingDuration="0.00" haltingDurationSum="0.00" meanIntervalHaltingDuration="0.00" maxIntervalHaltingDuration="0.00" intervalHaltingDurationSum="0.00" startedHalts="0.00" meanVehicleNumber="20.38" maxVehicleNumber="23" />
   <interval begin="120.00" end="180.00" id="mainline_up_0_1" sampledSeconds="611.18" nVehEntered="22" nVehLeft="20" nVehSeen="34" meanSpeed="17.37" meanTimeLoss="2.17" meanOccupancy="7.21" maxOccupancy="10.00" meanMaxJamLengthInVehicles="0.00" meanMaxJamLengthInMeters="0.00" maxJamLengthInVehicles="0" maxJamLengthInMeters="0.00" jamLengthInVehiclesSum="0" jamLengthInMetersSum="0.00" meanHaltingDuration="0.00" maxHaltingDuration="0.00" haltingDurationSum="0.00" meanIntervalHaltingDuration="0.00" maxIntervalHaltingDuration="0.00" intervalHaltingDurationSum="0.00" startedHalts="0.00" meanVehicleNumber="10.45" maxVehicleNumber="14" />
   <interval begin="120.00" end="180.00" id="mainline_up_1_1" sampledSeconds="852.87" nVehEntered="36" nVehLeft="32" nVehSeen="51" meanSpeed="18.91" meanTimeLoss="1.77" meanOccupancy="10.11" maxOccupancy="13.57" meanMaxJamLengthInVehicles="0.00" meanMaxJamLengthInMeters="0.00" maxJamLengthInVehicles="0" maxJamLengthInMeters="0.00" jamLengthInVehiclesSum="0" jamLengthInMetersSum="0.00" meanHaltingDuration="0.00" maxHaltingDuration="0.00" haltingDurationSum="0.00" meanIntervalHaltingDuration="0.00" maxIntervalHaltingDuration="0.00" intervalHaltingDurationSum="0.00" startedHalts="0.00" meanVehicleNumber="14.63" maxVehicleNumber="19" />
   <interval begin="120.00" end="180.00" id="mainline_up_2_1" sampledSeconds="922.64" nVehEntered="38" nVehLeft="33" nVehSeen="54" meanSpeed="21.32" meanTimeLoss="1.15" meanOccupancy="10.91" maxOccupancy="15.71" meanMaxJamLengthInVehicles="0.00" meanMaxJamLengthInMeters="0.00" maxJamLengthInVehicles="0" maxJamLengthInMeters="0.00" jamLengthInVehiclesSum="0" jamLengthInMetersSum="0.00" meanHaltingDuration="0.00" maxHaltingDuration="0.00" haltingDurationSum="0.00" meanIntervalHaltingDuration="0.00" maxIntervalHaltingDuration="0.00" intervalHaltingDurationSum="0.00" startedHalts="0.00" meanVehicleNumber="15.80" maxVehicleNumber="22" />
   <interval begin="120.00" end="180.00" id="mainline_up_0_2" sampledSeconds="683.63" nVehEntered="21" nVehLeft="23" nVehSeen="31" meanSpeed="18.72" meanTimeLoss="1.69" meanOccupancy="7.12" maxOccupancy="8.79" meanMaxJamLengthInVehicles="0.00" meanMaxJamLengthInMeters="0.00" maxJamLengthInVehicles="0" maxJamLengthInMeters="0.00" jamLengthInVehiclesSum="0" jamLengthInMetersSum="0.00" meanHaltingDuration="0.00" maxHaltingDuration="0.00" haltingDurationSum="0.00" meanIntervalHaltingDuration="0.00" maxIntervalHaltingDuration="0.00" intervalHaltingDurationSum="0.00" startedHalts="0.00" meanVehicleNumber="11.67" maxVehicleNumber="14" />
   <interval begin="120.00" end="180.00" id="mainline_up_1_2" sampledSeconds="877.10" nVehEntered="34" nVehLeft="34" nVehSeen="44" meanSpeed="20.32" meanTimeLoss="1.17" meanOccupancy="9.11" maxOccupancy="11.93" meanMaxJamLengthInVehicles="0.00" meanMaxJamLengthInMeters="0.00" maxJamLengthInVehicles="0" maxJamLengthInMeters="0.00" jamLengthInVehiclesSum="0" jamLengthInMetersSum="0.00" meanHaltingDuration="0.00" maxHaltingDuration="0.00" haltingDurationSum="0.00" meanIntervalHaltingDuration="0.00" maxIntervalHaltingDuration="0.00" intervalHaltingDurationSum="0.00" startedHalts="0.00" meanVehicleNumber="15.02" maxVehicleNumber="20" />
   <interval begin="120.00" end="180.00" id="mainline_up_2_2" sampledSeconds="1156.16" nVehEntered="34" nVehLeft="30" nVehSeen="47" meanSpeed="21.36" meanTimeLoss="1.84" meanOccupancy="12.04" maxOccupancy="14.45" meanMaxJamLengthInVehicles="0.00" meanMaxJamLengthInMeters="0.00" maxJamLengthInVehicles="0" maxJamLengthInMeters="0.00" jamLengthInVehiclesSum="0" jamLengthInMetersSum="0.00" meanHaltingDuration="0.00" maxHaltingDuration="0.00" haltingDurationSum="0.00" meanIntervalHaltingDuration="0.00" maxIntervalHaltingDuration="0.00" intervalHaltingDurationSum="0.00" startedHalts="0.00" meanVehicleNumber="19.70" maxVehicleNumber="24" />
    <interval begin="180.00" end="240.00" id="ramp_eval_0_0" nVehContrib="20" flow="1200.00" occupancy="19.36" speed="8.64" length="5.00" nVehEntered="20"/>
    <interval begin="180.00" end="240.00" id="ramp_eval_2_0" nVehContrib="12" flow="720.00" occupancy="10.35" speed="9.67" length="5.00" nVehEntered="12"/>
   <interval begin="180.00" end="240.00" id="mainline_up_0_0" sampledSeconds="836.07" nVehEntered="32" nVehLeft="30" nVehSeen="43" meanSpeed="17.64" meanTimeLoss="2.91" meanOccupancy="9.94" maxOccupancy="12.14" meanMaxJamLengthInVehicles="0.00" meanMaxJamLengthInMeters="0.00" maxJamLengthInVehicles="0" maxJamLengthInMeters="0.00" jamLengthInVehiclesSum="0" jamLengthInMetersSum="0.00" meanHaltingDuration="0.00" maxHaltingDuration="0.00" haltingDurationSum="0.00" meanIntervalHaltingDuration="0.00" maxIntervalHaltingDuration="0.00" intervalHaltingDurationSum="0.00" startedHalts="0.00" meanVehicleNumber="14.28" maxVehicleNumber="18" />
   <interval begin="180.00" end="240.00" id="mainline_up_1_0" sampledSeconds="976.86" nVehEntered="47" nVehLeft="45" nVehSeen="62" meanSpeed="18.64" meanTimeLoss="2.23" meanOccupancy="11.50" maxOccupancy="13.57" meanMaxJamLengthInVehicles="0.00" meanMaxJamLengthInMeters="0.00" maxJamLengthInVehicles="0" maxJamLengthInMeters="0.00" jamLengthInVehiclesSum="0" jamLengthInMetersSum="0.00" meanHaltingDuration="0.00" maxHaltingDuration="0.00" haltingDurationSum="0.00" meanIntervalHaltingDuration="0.00" maxIntervalHaltingDuration="0.00" intervalHaltingDurationSum="0.00" startedHalts="0.00" meanVehicleNumber="16.68" maxVehicleNumber="20" />
   <interval begin="180.00" end="240.00" id="mainline_up_2_0" sampledSeconds="1000.18" nVehEntered="36" nVehLeft="39" nVehSeen="55" meanSpeed="20.03" meanTimeLoss="2.28" meanOccupancy="11.75" maxOccupancy="13.57" meanMaxJamLengthInVehicles="0.00" meanMaxJamLengthInMeters="0.00" maxJamLengthInVehicles="0" maxJamLengthInMeters="0.00" jamLengthInVehiclesSum="0" jamLengthInMetersSum="0.00" meanHaltingDuration="0.00" maxHaltingDuration="0.00" haltingDurationSum="0.00" meanIntervalHaltingDuration="0.00" maxIntervalHaltingDuration="0.00" intervalHaltingDurationSum="0.00" startedHalts="0.00" meanVehicleNumber="17.12" maxVehicleNumber="20" />
   <interval begin="180.00" end="240.00" id="mainline_up_0_1" sampledSeconds="821.81" nVehEntered="20" nVehLeft="22" nVehSeen="34" meanSpeed="16.63" meanTimeLoss="4.49" meanOccupancy="9.71" maxOccupancy="11.43" meanMaxJamLengthInVehicles="0.00" meanMaxJamLengthInMeters="0.00" maxJamLengthInVehicles="0" maxJamLengthInMeters="0.00" jamLengthInVehiclesSum="0" jamLengthInMetersSum="0.00" meanHaltingDuration="0.00" maxHaltingDuration="0.00" haltingDurationSum="0.00" meanIntervalHaltingDuration="0.00" maxIntervalHaltingDuration="0.00" intervalHaltingDurationSum="0.00" startedHalts="0.00" meanVehicleNumber="14.00" maxVehicleNumber="16" />
   <interval begin="180.00" end="240.00" id="mainline_up_1_1" sampledSeconds="1233.02" nVehEntered="35" nVehLeft="36" nVehSeen="54" meanSpeed="17.21" meanTimeLoss="4.66" meanOccupancy="14.59" maxOccupancy="17.86" meanMaxJamLengthInVehicles="0.00" meanMaxJamLengthInMeters="0.00" maxJamLengthInVehicles="0" maxJamLengthInMeters="0.00" jamLengthInVehiclesSum="0" jamLengthInMetersSum="0.00" meanHaltingDuration="0.00" maxHaltingDuration="0.00" haltingDurationSum="0.00" meanIntervalHaltingDuration="0.00" maxIntervalHaltingDuration="0.00" intervalHaltingDurationSum="0.00" startedHalts="0.00" meanVehicleNumber="21.02" maxVehicleNumber="26" />
   <interval begin="180.00" end="240.00" id="mainline_up_2_1" sampledSeconds="1262.13" nVehEntered="37" nVehLeft="39" nVehSeen="58" meanSpeed="20.06" meanTimeLoss="2.96" meanOccupancy="14.91" maxOccupancy="17.14" meanMaxJamLengthInVehicles="0.00" meanMaxJamLengthInMeters="0.00" maxJamLengthInVehicles="0" maxJamLengthInMeters="0.00" jamLengthInVehiclesSum="0" jamLengthInMetersSum="0.00" meanHaltingDuration="0.00" maxHaltingDuration="0.00" haltingDurationSum="0.00" meanIntervalHaltingDuration="0.00" maxIntervalHaltingDuration="0.00" intervalHaltingDurationSum="0.00" startedHalts="0.00" meanVehicleNumber="21.63" maxVehicleNumber="25" />
   <interval begin="180.00" end="240.00" id="mainline_up_0_2" sampledSeconds="748.09" nVehEntered="22" nVehLeft="12" nVehSeen="30" meanSpeed="16.49" meanTimeLoss="3.70" meanOccupancy="7.83" maxOccupancy="11.93" meanMaxJamLengthInVehicles="0.00" meanMaxJamLengthInMeters="0.00" maxJamLengthInVehicles="0" maxJamLengthInMeters="0.00" jamLengthInVehiclesSum="0" jamLengthInMetersSum="0.00" meanHaltingDuration="0.00" maxHaltingDuration="0.00" haltingDurationSum="0.00" meanIntervalHaltingDuration="0.00" maxIntervalHaltingDuration="0.00" intervalHaltingDurationSum="0.00" startedHalts="0.00" meanVehicleNumber="12.65" maxVehicleNumber="19" />
   <interval begin="180.00" end="240.00" id="mainline_up_1_2" sampledSeconds="924.67" nVehEntered="38" nVehLeft="25" nVehSeen="48" meanSpeed="18.96" meanTimeLoss="2.27" meanOccupancy="9.64" maxOccupancy="14.45" meanMaxJamLengthInVehicles="0.00" meanMaxJamLengthInMeters="0.00" maxJamLengthInVehicles="0" maxJamLengthInMeters="0.00" jamLengthInVehiclesSum="0" jamLengthInMetersSum="0.00" meanHaltingDuration="0.00" maxHaltingDuration="0.00" haltingDurationSum="0.00" meanIntervalHaltingDuration="0.00" maxIntervalHaltingDuration="0.00" intervalHaltingDurationSum="0.00" startedHalts="0.00" meanVehicleNumber="15.77" maxVehicleNumber="24" />
   <interval begin="180.00" end="240.00" id="mainline_up_2_2" sampledSeconds="1172.07" nVehEntered="40" nVehLeft="31" nVehSeen="57" meanSpeed="21.24" meanTimeLoss="1.63" meanOccupancy="12.26" maxOccupancy="15.93" meanMaxJamLengthInVehicles="0.00" meanMaxJamLengthInMeters="0.00" maxJamLengthInVehicles="0" maxJamLengthInMeters="0.00" jamLengthInVehiclesSum="0" jamLengthInMetersSum="0.00" meanHaltingDuration="0.00" maxHaltingDuration="0.00" haltingDurationSum="0.00" meanIntervalHaltingDuration="0.00" maxIntervalHaltingDuration="0.00" intervalHaltingDurationSum="0.00" startedHalts="0.00" meanVehicleNumber="20.07" maxVehicleNumber="26" />
    <interval begin="240.00" end="300.00" id="ramp_eval_0_0" nVehContrib="19" flow="1140.00" occupancy="16.96" speed="9.41" length="5.00" nVehEntered="19"/>
    <interval begin="240.00" end="300.00" id="ramp_eval_2_0" nVehContrib="19" flow="1140.00" occupancy="19.14" speed="8.30" length="5.00" nVehEntered="19"/>
   <interval begin="240.00" end="300.00" id="mainline_up_0_0" sampledSeconds="912.29" nVehEntered="30" nVehLeft="29" nVehSeen="43" meanSpeed="17.66" meanTimeLoss="2.97" meanOccupancy="10.82" maxOccupancy="13.57" meanMaxJamLengthInVehicles="0.00" meanMaxJamLengthInMeters="0.00" maxJamLengthInVehicles="0" maxJamLengthInMeters="0.00" jamLengthInVehiclesSum="0" jamLengthInMetersSum="0.00" meanHaltingDuration="0.00" maxHaltingDuration="0.00" haltingDurationSum="0.00" meanIntervalHaltingDuration="0.00" maxIntervalHaltingDuration="0.00" intervalHaltingDurationSum="0.00" startedHalts="0.00" meanVehicleNumber="15.63" maxVehicleNumber="19" />
   <interval begin="240.00" end="300.00" id="mainline_up_1_0" sampledSeconds="1011.11" nVehEntered="39" nVehLeft="37" nVehSeen="56" meanSpeed="18.73" meanTimeLoss="2.37" meanOccupancy="11.94" maxOccupancy="15.00" meanMaxJamLengthInVehicles="0.00" meanMaxJamLengthInMeters="0.00" maxJamLengthInVehicles="0" maxJamLengthInMeters="0.00" jamLengthInVehiclesSum="0" jamLengthInMetersSum="0.00" meanHaltingDuration="0.00" maxHaltingDuration="0.00" haltingDurationSum="0.00" meanIntervalHaltingDuration="0.00" maxIntervalHaltingDuration="0.00" intervalHaltingDurationSum="0.00" startedHalts="0.00" meanVehicleNumber="17.27" maxVehicleNumber="21" />
   <interval begin="240.00" end="300.00" id="mainline_up_2_0" sampledSeconds="1079.47" nVehEntered="38" nVehLeft="37" nVehSeen="54" meanSpeed="19.94" meanTimeLoss="2.56" meanOccupancy="12.70" maxOccupancy="14.86" meanMaxJamLengthInVehicles="0.00" meanMaxJamLengthInMeters="0.00" maxJamLengthInVehicles="0" maxJamLengthInMeters="0.00" jamLengthInVehiclesSum="0" jamLengthInMetersSum="0.00" meanHaltingDuration="0.00" maxHaltingDuration="0.00" haltingDurationSum="0.00" meanIntervalHaltingDuration="0.00" maxIntervalHaltingDuration="0.00" intervalHaltingDurationSum="0.00" startedHalts="0.00" meanVehicleNumber="18.50" maxVehicleNumber="21" />
   <interval begin="240.00" end="300.00" id="mainline_up_0_1" sampledSeconds="652.36" nVehEntered="22" nVehLeft="20" nVehSeen="34" meanSpeed="18.21" meanTimeLoss="1.57" meanOccupancy="7.74" maxOccupancy="10.71" meanMaxJamLengthInVehicles="0.00" meanMaxJamLengthInMeters="0.00" maxJamLengthInVehicles="0" maxJamLengthInMeters="0.00" jamLengthInVehiclesSum="0" jamLengthInMetersSum="0.00" meanHaltingDuration="0.00" maxHaltingDuration="0.00" haltingDurationSum="0.00" meanIntervalHaltingDuration="0.00" maxIntervalHaltingDuration="0.00" intervalHaltingDurationSum="0.00" startedHalts="0.00" meanVehicleNumber="11.20" maxVehicleNumber="15" />
   <interval begin="240.00" end="300.00" id="mainline_up_1_1" sampledSeconds="1031.72" nVehEntered="35" nVehLeft="38" nVehSeen="53" meanSpeed="19.42" meanTimeLoss="2.00" meanOccupancy="12.17" maxOccupancy="13.57" meanMaxJamLengthInVehicles="0.00" meanMaxJamLengthInMeters="0.00" maxJamLengthInVehicles="0" maxJamLengthInMeters="0.00" jamLengthInVehiclesSum="0" jamLengthInMetersSum="0.00" meanHaltingDuration="0.00" maxHaltingDuration="0.00" haltingDurationSum="0.00" meanIntervalHaltingDuration="0.00" maxIntervalHaltingDuration="0.00" intervalHaltingDurationSum="0.00" startedHalts="0.00" meanVehicleNumber="17.70" maxVehicleNumber="20" />
   <interval begin="240.00" end="300.00" id="mainline_up_2_1" sampledSeconds="1066.87" nVehEntered="39" nVehLeft="39" nVehSeen="58" meanSpeed="20.90" meanTimeLoss="1.84" meanOccupancy="12.59" maxOccupancy="15.00" meanMaxJamLengthInVehicles="0.00" meanMaxJamLengthInMeters="0.00" maxJamLengthInVehicles="0" maxJamLengthInMeters="0.00" jamLengthInVehiclesSum="0" jamLengthInMetersSum="0.00" meanHaltingDuration="0.00" maxHaltingDuration="0.00" haltingDurationSum="0.00" meanIntervalHaltingDuration="0.00" maxIntervalHaltingDuration="0.00" intervalHaltingDurationSum="0.00" startedHalts="0.00" meanVehicleNumber="18.33" maxVehicleNumber="21" />