<?xml version="1.0" encoding="UTF-8"?>

<!-- generated on 02/22/19 22:02:52 by Eclipse SUMO Version 1.0.1
<configuration xmlns:xsi="http://www.w3.org/2001/XMLSchema-instance" xsi:noNamespaceSchemaLocation="http://sumo.dlr.de/xsd/sumoConfiguration.xsd">

    <input>
        <net-file value="./project/ramp.net.xml"/>
        <route-files value="./project/ramp.rou.xml"/>
        <additional-files value="./project/ramp.add.xml"/>
    </input>

    <time>
        <begin value="0"/>
    </time>

    <report>
        <verbose value="true"/>
        <no-step-log value="true"/>
    </report>

    <traci_server>
        <remote-port value="51590"/>
    </traci_server>

    <random_number>
        <seed value="1688203976"/>
    </random_number>

    <gui_only>
        <quit-on-end value="true"/>
        <start value="true"/>
    </gui_only>

</configuration>
-->

<detector xmlns:xsi="http://www.w3.org/2001/XMLSchema-instance" xsi:noNamespaceSchemaLocation="http://sumo.dlr.de/xsd/det_e1_file.xsd">
    <interval begin="0.00" end="60.00" id="ramp_eval_0_0" nVehContrib="1" flow="60.00" occupancy="0.74" speed="11.24" length="5.00" nVehEntered="1"/>
    <interval begin="0.00" end="60.00" id="ramp_eval_2_0" nVehContrib="0" flow="0.00" occupancy="0.00" speed="-1.00" length="-1.00" nVehEntered="0"/>
   <interval begin="0.00" end="60.00" id="mainline_up_0_0" sampledSeconds="417.23" nVehEntered="22" nVehLeft="9" nVehSeen="22" meanSpeed="18.41" meanTimeLoss="2.25" meanOccupancy="4.99" maxOccupancy="10.15" meanMaxJamLengthInVehicles="0.00" meanMaxJamLengthInMeters="0.00" maxJamLengthInVehicles="0" maxJamLengthInMeters="0.00" jamLengthInVehiclesSum="0" jamLengthInMetersSum="0.00" meanHaltingDuration="0.00" maxHaltingDuration="0.00" haltingDurationSum="0.00" meanIntervalHaltingDuration="0.00" maxIntervalHaltingDuration="0.00" intervalHaltingDurationSum="0.00" startedHalts="0.00" meanVehicleNumber="7.13" maxVehicleNumber="15" />
   <interval begin="0.00" end="60.00" id="mainline_up_1_0" sampledSeconds="348.16" nVehEntered="25" nVehLeft="12" nVehSeen="25" meanSpeed="19.15" meanTimeLoss="1.62" meanOccupancy="4.18" maxOccupancy="10.00" meanMaxJamLengthInVehicles="0.00" meanMaxJamLengthInMeters="0.00" maxJamLengthInVehicles="0" maxJamLengthInMeters="0.00" jamLengthInVehiclesSum="0" jamLengthInMetersSum="0.00" meanHaltingDuration="0.00" maxHaltingDuration="0.00" haltingDurationSum="0.00" meanIntervalHaltingDuration="0.00" maxIntervalHaltingDuration="0.00" intervalHaltingDurationSum="0.00" startedHalts="0.00" meanVehicleNumber="5.95" maxVehicleNumber="14" />
   <interval begin="0.00" end="60.00" id="mainline_up_2_0" sampledSeconds="369.69" nVehEntered="25" nVehLeft="11" nVehSeen="25" meanSpeed="19.60" meanTimeLoss="1.92" meanOccupancy="4.45" maxOccupancy="10.00" meanMaxJamLengthInVehicles="0.00" meanMaxJamLengthInMeters="0.00" maxJamLengthInVehicles="0" maxJamLengthInMeters="0.00" jamLengthInVehiclesSum="0" jamLengthInMetersSum="0.00" meanHaltingDuration="0.00" maxHaltingDuration="0.00" haltingDurationSum="0.00" meanIntervalHaltingDuration="0.00" maxIntervalHaltingDuration="0.00" intervalHaltingDurationSum="0.00" startedHalts="0.00" meanVehicleNumber="6.33" maxVehicleNumber="15" />
   <interval begin="0.00" end="60.00" id="mainline_up_0_1" sampledSeconds="66.44" nVehEntered="5" nVehLeft="0" nVehSeen="5" meanSpeed="21.09" meanTimeLoss="0.34" meanOccupancy="0.82" maxOccupancy="3.57" meanMaxJamLengthInVehicles="0.00" meanMaxJamLengthInMeters="0.00" maxJamLengthInVehicles="0" maxJamLengthInMeters="0.00" jamLengthInVehiclesSum="0" jamLengthInMetersSum="0.00" meanHaltingDuration="0.00" maxHaltingDuration="0.00" haltingDurationSum="0.00" meanIntervalHaltingDuration="0.00" maxIntervalHaltingDuration="0.00" intervalHaltingDurationSum="0.00" startedHalts="0.00" meanVehicleNumber="1.15" maxVehicleNumber="5" />
   <interval begin="0.00" end="60.00" id="mainline_up_1_1" sampledSeconds="34.53" nVehEntered="3" nVehLeft="0" nVehSeen="3" meanSpeed="22.20" meanTimeLoss="0.19" meanOccupancy="0.43" maxOccupancy="2.14" meanMaxJamLengthInVehicles="0.00" meanMaxJamLengthInMeters="0.00" maxJamLengthInVehicles="0" maxJamLengthInMeters="0.00" jamLengthInVehiclesSum="0" jamLengthInMetersSum="0.00" meanHaltingDuration="0.00" maxHaltingDuration="0.00" haltingDurationSum="0.00" meanIntervalHaltingDuration="0.00" maxIntervalHaltingDuration="0.00" intervalHaltingDurationSum="0.00" startedHalts="0.00" meanVehicleNumber="0.60" maxVehicleNumber="3" />
   <interval begin="0.00" end="60.00" id="mainline_up_2_1" sampledSeconds="26.62" nVehEntered="3" nVehLeft="0" nVehSeen="3" meanSpeed="24.85" meanTimeLoss="0.16" meanOccupancy="0.32" maxOccupancy="2.14" meanMaxJamLengthInVehicles="0.00" meanMaxJamLengthInMeters="0.00" maxJamLengthInVehicles="0" maxJamLengthInMeters="0.00" jamLengthInVehiclesSum="0" jamLengthInMetersSum="0.00" meanHaltingDuration="0.00" maxHaltingDuration="0.00" haltingDurationSum="0.00" meanIntervalHaltingDuration="0.00" maxIntervalHaltingDuration="0.00" intervalHaltingDurationSum="0.00" startedHalts="0.00" meanVehicleNumber="0.45" maxVehicleNumber="3" />
   <interval begin="0.00" end="60.00" id="mainline_up_0_2" sampledSeconds="0.00" nVehEntered="0" nVehLeft="0" nVehSeen="0" meanSpeed="-1.00" meanTimeLoss="-1.00" meanOccupancy="0.00" maxOccupancy="0.00" meanMaxJamLengthInVehicles="0.00" meanMaxJamLengthInMeters="0.00" maxJamLengthInVehicles="0" maxJamLengthInMeters="0.00" jamLengthInVehiclesSum="0" jamLengthInMetersSum="0.00" meanHaltingDuration="0.00" maxHaltingDuration="0.00" haltingDurationSum="0.00" meanIntervalHaltingDuration="0.00" maxIntervalHaltingDuration="0.00" intervalHaltingDurationSum="0.00" startedHalts="0.00" meanVehicleNumber="0.00" maxVehicleNumber="0" />
   <interval begin="0.00" end="60.00" id="mainline_up_1_2" sampledSeconds="0.00" nVehEntered="0" nVehLeft="0" nVehSeen="0" meanSpeed="-1.00" meanTimeLoss="-1.00" meanOccupancy="0.00" maxOccupancy="0.00" meanMaxJamLengthInVehicles="0.00" meanMaxJamLengthInMeters="0.00" maxJamLengthInVehicles="0" maxJamLengthInMeters="0.00" jamLengthInVehiclesSum="0" jamLengthInMetersSum="0.00" meanHaltingDuration="0.00" maxHaltingDuration="0.00" haltingDurationSum="0.00" meanIntervalHaltingDuration="0.00" maxIntervalHaltingDuration="0.00" intervalHaltingDurationSum="0.00" startedHalts="0.00" meanVehicleNumber="0.00" maxVehicleNumber="0" />
   <interval begin="0.00" end="60.00" id="mainline_up_2_2" sampledSeconds="0.00" nVehEntered="0" nVehLeft="0" nVehSeen="0" meanSpeed="-1.00" meanTimeLoss="-1.00" meanOccupancy="0.00" maxOccupancy="0.00" meanMaxJamLengthInVehicles="0.00" meanMaxJamLengthInMeters="0.00" maxJamLengthInVehicles="0" maxJamLengthInMeters="0.00" jamLengthInVehiclesSum="0" jamLengthInMetersSum="0.00" meanHaltingDuration="0.00" maxHaltingDuration="0.00" haltingDurationSum="0.00" meanIntervalHaltingDuration="0.00" maxIntervalHaltingDuration="0.00" intervalHaltingDurationSum="0.00" startedHalts="0.00" meanVehicleNumber="0.00" maxVehicleNumber="0" />
    <interval begin="60.00" end="120.00" id="ramp_eval_0_0" nVehContrib="18" flow="1080.00" occupancy="15.59" speed="9.68" length="5.00" nVehEntered="18"/>
    <interval begin="60.00" end="120.00" id="ramp_eval_2_0" nVehContrib="1" flow="60.00" occupancy="0.74" speed="11.28" length="5.00" nVehEntered="1"/>
   <interval begin="60.00" end="120.00" id="mainline_up_0_0" sampledSeconds="769.97" nVehEntered="28" nVehLeft="28" nVehSeen="41" meanSpeed="18.05" meanTimeLoss="2.38" meanOccupancy="9.09" maxOccupancy="11.18" meanMaxJamLengthInVehicles="0.00" meanMaxJamLengthInMeters="0.00" maxJamLengthInVehicles="0" maxJamLengthInMeters="0.00" jamLengthInVehiclesSum="0" jamLengthInMetersSum="0.00" meanHaltingDuration="0.00" maxHaltingDuration="0.00" haltingDurationSum="0.00" meanIntervalHaltingDuration="0.00" maxIntervalHaltingDuration="0.00" intervalHaltingDurationSum="0.00" startedHalts="0.00" meanVehicleNumber="13.20" maxVehicleNumber="16" />
   <interval begin="60.00" end="120.00" id="mainline_up_1_0" sampledSeconds="845.63" nVehEntered="36" nVehLeft="34" nVehSeen="49" meanSpeed="18.98" meanTimeLoss="1.96" meanOccupancy="9.99" maxOccupancy="12.53" meanMaxJamLengthInVehicles="0.00" meanMaxJamLengthInMeters="0.00" maxJamLengthInVehicles="0" maxJamLengthInMeters="0.00" jamLengthInVehiclesSum="0" jamLengthInMetersSum="0.00" meanHaltingDuration="0.00" maxHaltingDuration="0.00" haltingDurationSum="0.00" meanIntervalHaltingDuration="0.00" maxIntervalHaltingDuration="0.00" intervalHaltingDurationSum="0.00" startedHalts="0.00" meanVehicleNumber="14.50" maxVehicleNumber="18" />
   <interval begin="60.00" end="120.00" id="mainline_up_2_0" sampledSeconds="1008.93" nVehEntered="36" nVehLeft="33" nVehSeen="50" meanSpeed="20.08" meanTimeLoss="2.33" meanOccupancy="11.89" maxOccupancy="13.57" meanMaxJamLengthInVehicles="0.00" meanMaxJamLengthInMeters="0.00" maxJamLengthInVehicles="0" maxJamLengthInMeters="0.00" jamLengthInVehiclesSum="0" jamLengthInMetersSum="0.00" meanHaltingDuration="0.00" maxHaltingDuration="0.00" haltingDurationSum="0.00" meanIntervalHaltingDuration="0.00" maxIntervalHaltingDuration="0.00" intervalHaltingDurationSum="0.00" startedHalts="0.00" meanVehicleNumber="17.27" maxVehicleNumber="20" />
   <interval begin="60.00" end="120.00" id="mainline_up_0_1" sampledSeconds="593.35" nVehEntered="22" nVehLeft="17" nVehSeen="27" meanSpeed="18.73" meanTimeLoss="1.92" meanOccupancy="7.08" maxOccupancy="9.29" meanMaxJamLengthInVehicles="0.00" meanMaxJamLengthInMeters="0.00" maxJamLengthInVehicles="0" maxJamLengthInMeters="0.00" jamLengthInVehiclesSum="0" jamLengthInMetersSum="0.00" meanHaltingDuration="0.00" maxHaltingDuration="0.00" haltingDurationSum="0.00" meanIntervalHaltingDuration="0.00" maxIntervalHaltingDuration="0.00" intervalHaltingDurationSum="0.00" startedHalts="0.00" meanVehicleNumber="10.20" maxVehicleNumber="13" />
   <interval begin="60.00" end="120.00" id="mainline_up_1_1" sampledSeconds="663.54" nVehEntered="29" nVehLeft="18" nVehSeen="32" meanSpeed="19.59" meanTimeLoss="1.81" meanOccupancy="7.89" maxOccupancy="12.14" meanMaxJamLengthInVehicles="0.00" meanMaxJamLengthInMeters="0.00" maxJamLengthInVehicles="0" maxJamLengthInMeters="0.00" jamLengthInVehiclesSum="0" jamLengthInMetersSum="0.00" meanHaltingDuration="0.00" maxHaltingDuration="0.00" haltingDurationSum="0.00" meanIntervalHaltingDuration="0.00" maxIntervalHaltingDuration="0.00" intervalHaltingDurationSum="0.00" startedHalts="0.00" meanVehicleNumber="11.38" maxVehicleNumber="17" />
   <interval begin="60.00" end="120.00" id="mainline_up_2_1" sampledSeconds="723.44" nVehEntered="31" nVehLeft="14" nVehSeen="34" meanSpeed="20.54" meanTimeLoss="2.33" meanOccupancy="8.67" maxOccupancy="14.29" meanMaxJamLengthInVehicles="0.00" meanMaxJamLengthInMeters="0.00" maxJamLengthInVehicles="0" maxJamLengthInMeters="0.00" jamLengthInVehiclesSum="0" jamLengthInMetersSum="0.00" meanHaltingDuration="0.00" maxHaltingDuration="0.00" haltingDurationSum="0.00" meanIntervalHaltingDuration="0.00" maxIntervalHaltingDuration="0.00" intervalHaltingDurationSum="0.00" startedHalts="0.00" meanVehicleNumber="12.35" maxVehicleNumber="21" />
   <interval begin="60.00" end="120.00" id="mainline_up_0_2" sampledSeconds="288.75" nVehEntered="15" nVehLeft="5" nVehSeen="15" meanSpeed="20.31" meanTimeLoss="0.63" meanOccupancy="3.04" maxOccupancy="6.91" meanMaxJamLengthInVehicles="0.00" meanMaxJamLengthInMeters="0.00" maxJamLengthInVehicles="0" maxJamLengthInMeters="0.00" jamLengthInVehiclesSum="0" jamLengthInMetersSum="0.00" meanHaltingDuration="0.00" maxHaltingDuration="0.00" haltingDurationSum="0.00" meanIntervalHaltingDuration="0.00" maxIntervalHaltingDuration="0.00" intervalHaltingDurationSum="0.00" startedHalts="0.00" meanVehicleNumber="4.93" maxVehicleNumber="12" />
   <interval begin="60.00" end="120.00" id="mainline_up_1_2" sampledSeconds="240.92" nVehEntered="16" nVehLeft="4" nVehSeen="16" meanSpeed="21.37" meanTimeLoss="0.55" meanOccupancy="2.57" maxOccupancy="8.17" meanMaxJamLengthInVehicles="0.00" meanMaxJamLengthInMeters="0.00" maxJamLengthInVehicles="0" maxJamLengthInMeters="0.00" jamLengthInVehiclesSum="0" jamLengthInMetersSum="0.00" meanHaltingDuration="0.00" maxHaltingDuration="0.00" haltingDurationSum="0.00" meanIntervalHaltingDuration="0.00" maxIntervalHaltingDuration="0.00" intervalHaltingDurationSum="0.00" startedHalts="0.00" meanVehicleNumber="4.15" maxVehicleNumber="13" />
   <interval begin="60.00" end="120.00" id="mainline_up_2_2" sampledSeconds="144.84" nVehEntered="11" nVehLeft="1" nVehSeen="11" meanSpeed="21.72" meanTimeLoss="0.98" meanOccupancy="1.56" maxOccupancy="6.28" meanMaxJamLengthInVehicles="0.00" meanMaxJamLengthInMeters="0.00" maxJamLengthInVehicles="0" maxJamLengthInMeters="0.00" jamLengthInVehiclesSum="0" jamLengthInMetersSum="0.00" meanHaltingDuration="0.00" maxHaltingDuration="0.00" haltingDurationSum="0.00" meanIntervalHaltingDuration="0.00" maxIntervalHaltingDuration="0.00" intervalHaltingDurationSum="0.00" startedHalts="0.00" meanVehicleNumber="2.48" maxVehicleNumber="10" />
    <interval begin="120.00" end="180.00" id="ramp_eval_0_0" nVehContrib="18" flow="1080.00" occupancy="15.86" speed="9.52" length="5.00" nVehEntered="18"/>
    <interval begin="120.00" end="180.00" id="ramp_eval_2_0" nVehContrib="14" flow="840.00" occupancy="14.24" speed="8.65" length="5.00" nVehEntered="15"/>
   <interval begin="120.00" end="180.00" id="mainline_up_0_0" sampledSeconds="840.91" nVehEntered="38" nVehLeft="34" nVehSeen="51" meanSpeed="17.95" meanTimeLoss="2.24" meanOccupancy="9.98" maxOccupancy="13.44" meanMaxJamLengthInVehicles="0.00" meanMaxJamLengthInMeters="0.00" maxJamLengthInVehicles="0" maxJamLengthInMeters="0.00" jamLengthInVehiclesSum="0" jamLengthInMetersSum="0.00" meanHaltingDuration="0.00" maxHaltingDuration="0.00" haltingDurationSum="0.00" meanIntervalHaltingDuration="0.00" maxIntervalHaltingDuration="0.00" intervalHaltingDurationSum="0.00" startedHalts="0.00" meanVehicleNumber="14.40" maxVehicleNumber="19" />
   <interval begin="120.00" end="180.00" id="mainline_up_1_0" sampledSeconds="1030.73" nVehEntered="52" nVehLeft="51" nVehSeen="67" meanSpeed="18.69" meanTimeLoss="2.42" meanOccupancy="12.19" maxOccupancy="15.00" meanMaxJamLengthInVehicles="0.00" meanMaxJamLengthInMeters="0.00" maxJamLengthInVehicles="0" maxJamLengthInMeters="0.00" jamLengthInVehiclesSum="0" jamLengthInMetersSum="0.00" meanHaltingDuration="0.00" maxHaltingDuration="0.00" haltingDurationSum="0.00" meanIntervalHaltingDuration="0.00" maxIntervalHaltingDuration="0.00" intervalHaltingDurationSum="0.00" startedHalts="0.00" meanVehicleNumber="17.63" maxVehicleNumber="21" />
   <interval begin="120.00" end="180.00" id="mainline_up_2_0" sampledSeconds="1104.56" nVehEntered="40" nVehLeft="38" nVehSeen="57" meanSpeed="19.65" meanTimeLoss="2.68" meanOccupancy="13.00" maxOccupancy="15.00" meanMaxJamLengthInVehicles="0.00" meanMaxJamLengthInMeters="0.00" maxJamLengthInVehicles="0" maxJamLengthInMeters="0.00" jamLengthInVehiclesSum="0" jamLengthInMetersSum="0.00" meanHaltingDuration="0.00" maxHaltingDuration="0.00" haltingDurationSum="0.00" meanIntervalHaltingDuration="0.00" maxIntervalHaltingDuration="0.00" intervalHaltingDurationSum="0.00" startedHalts="0.00" meanVehicleNumber="18.83" maxVehicleNumber="22" />
   <interval begin="120.00" end="180.00" id="mainline_up_0_1" sampledSeconds="639.51" nVehEntered="19" nVehLeft="17" nVehSeen="29" meanSpeed="18.44" meanTimeLoss="1.53" meanOccupancy="7.58" maxOccupancy="10.00" meanMaxJamLengthInVehicles="0.00" meanMaxJamLengthInMeters="0.00" maxJamLengthInVehicles="0" maxJamLengthInMeters="0.00" jamLengthInVehiclesSum="0" jamLengthInMetersSum="0.00" meanHaltingDuration="0.00" maxHaltingDuration="0.00" haltingDurationSum="0.00" meanIntervalHaltingDuration="0.00" maxIntervalHaltingDuration="0.00" intervalHaltingDurationSum="0.00" startedHalts="0.00" meanVehicleNumber="10.93" maxVehicleNumber="14" />
   <interval begin="120.00" end="180.00" id="mainline_up_1_1" sampledSeconds="909.63" nVehEntered="29" nVehLeft="29" nVehSeen="43" meanSpeed="19.58" meanTimeLoss="2.10" meanOccupancy="10.79" maxOccupancy="12.86" meanMaxJamLengthInVehicles="0.00" meanMaxJamLengthInMeters="0.00" maxJamLengthInVehicles="0" maxJamLengthInMeters="0.00" jamLengthInVehiclesSum="0" jamLengthInMetersSum="0.00" meanHaltingDuration="0.00" maxHaltingDuration="0.00" haltingDurationSum="0.00" meanIntervalHaltingDuration="0.00" maxIntervalHaltingDuration="0.00" intervalHaltingDurationSum="0.00" startedHalts="0.00" meanVehicleNumber="15.55" maxVehicleNumber="18" />
   <interval begin="120.00" end="180.00" id="mainline_up_2_1" sampledSeconds="1123.12" nVehEntered="37" nVehLeft="37" nVehSeen="57" meanSpeed="20.65" meanTimeLoss="1.99" meanOccupancy="13.25" maxOccupancy="15.71" meanMaxJamLengthInVehicles="0.00" meanMaxJamLengthInMeters="0.00" maxJamLengthInVehicles="0" maxJamLengthInMeters="0.00" jamLengthInVehiclesSum="0" jamLengthInMetersSum="0.00" meanHaltingDuration="0.00" maxHaltingDuration="0.00" haltingDurationSum="0.00" meanIntervalHaltingDuration="0.00" maxIntervalHaltingDuration="0.00" intervalHaltingDurationSum="0.00" startedHalts="0.00" meanVehicleNumber="19.28" maxVehicleNumber="23" />
   <interval begin="120.00" end="180.00" id="mainline_up_0_2" sampledSeconds="671.25" nVehEntered="22" nVehLeft="18" nVehSeen="32" meanSpeed="18.79" meanTimeLoss="1.66" meanOccupancy="7.00" maxOccupancy="8.79" meanMaxJamLengthInVehicles="0.00" meanMaxJamLengthInMeters="0.00" maxJamLengthInVehicles="0" maxJamLengthInMeters="0.00" jamLengthInVehiclesSum="0" jamLengthInMetersSum="0.00" meanHaltingDuration="0.00" maxHaltingDuration="0.00" haltingDurationSum="0.00" meanIntervalHaltingDuration="0.00" maxIntervalHaltingDuration="0.00" intervalHaltingDurationSum="0.00" startedHalts="0.00" meanVehicleNumber="11.40" maxVehicleNumber="14" />
   <interval begin="120.00" end="180.00" id="mainline_up_1_2" sampledSeconds="922.09" nVehEntered="31" nVehLeft="29" nVehSeen="43" meanSpeed="19.66" meanTimeLoss="1.72" meanOccupancy="9.58" maxOccupancy="12.56" meanMaxJamLengthInVehicles="0.00" meanMaxJamLengthInMeters="0.00" maxJamLengthInVehicles="0" maxJamLengthInMeters="0.00" jamLengthInVehiclesSum="0" jamLengthInMetersSum="0.00" meanHaltingDuration="0.00" maxHaltingDuration="0.00" haltingDurationSum="0.00" meanIntervalHaltingDuration="0.00" maxIntervalHaltingDuration="0.00" intervalHaltingDurationSum="0.00" startedHalts="0.00" meanVehicleNumber="15.72" maxVehicleNumber="21" />
   <interval begin="120.00" end="180.00" id="mainline_up_2_2" sampledSeconds="1147.80" nVehEntered="35" nVehLeft="25" nVehSeen="45" meanSpeed="20.41" meanTimeLoss="2.71" meanOccupancy="12.01" maxOccupancy="15.59" meanMaxJamLengthInVehicles="0.00" meanMaxJamLengthInMeters="0.00" maxJamLengthInVehicles="0" maxJamLengthInMeters="0.00" jamLengthInVehiclesSum="0" jamLengthInMetersSum="0.00" meanHaltingDuration="0.00" maxHaltingDuration="0.00" haltingDurationSum="0.00" meanIntervalHaltingDuration="0.00" maxIntervalHaltingDuration="0.00" intervalHaltingDurationSum="0.00" startedHalts="0.00" meanVehicleNumber="19.62" maxVehicleNumber="25" />
    <interval begin="180.00" end="240.00" id="ramp_eval_0_0" nVehContrib="20" flow="1200.00" occupancy="18.04" speed="9.25" length="5.00" nVehEntered="20"/>
    <interval begin="180.00" end="240.00" id="ramp_eval_2_0" nVehContrib="16" flow="960.00" occupancy="15.28" speed="8.70" length="5.00" nVehEntered="16"/>
   <interval begin="180.00" end="240.00" id="mainline_up_0_0" sampledSeconds="871.23" nVehEntered="31" nVehLeft="34" nVehSeen="48" meanSpeed="18.00" meanTimeLoss="2.22" meanOccupancy="10.29" maxOccupancy="12.14" meanMaxJamLengthInVehicles="0.00" meanMaxJamLengthInMeters="0.00" maxJamLengthInVehicles="0" maxJamLengthInMeters="0.00" jamLengthInVehiclesSum="0" jamLengthInMetersSum="0.00" meanHaltingDuration="0.00" maxHaltingDuration="0.00" haltingDurationSum="0.00" meanIntervalHaltingDuration="0.00" maxIntervalHaltingDuration="0.00" intervalHaltingDurationSum="0.00" startedHalts="0.00" meanVehicleNumber="14.90" maxVehicleNumber="17" />
   <interval begin="180.00" end="240.00" id="mainline_up_1_0" sampledSeconds="1016.57" nVehEntered="48" nVehLeft="47" nVehSeen="64" meanSpeed="18.66" meanTimeLoss="2.38" meanOccupancy="12.02" maxOccupancy="13.57" meanMaxJamLengthInVehicles="0.00" meanMaxJamLengthInMeters="0.00" maxJamLengthInVehicles="0" maxJamLengthInMeters="0.00" jamLengthInVehiclesSum="0" jamLengthInMetersSum="0.00" meanHaltingDuration="0.00" maxHaltingDuration="0.00" haltingDurationSum="0.00" meanIntervalHaltingDuration="0.00" maxIntervalHaltingDuration="0.00" intervalHaltingDurationSum="0.00" startedHalts="0.00" meanVehicleNumber="17.43" maxVehicleNumber="20" />
   <interval begin="180.00" end="240.00" id="mainline_up_2_0" sampledSeconds="1079.17" nVehEntered="41" nVehLeft="39" nVehSeen="60" meanSpeed="19.93" meanTimeLoss="2.05" meanOccupancy="12.73" maxOccupancy="15.00" meanMaxJamLengthInVehicles="0.00" meanMaxJamLengthInMeters="0.00" maxJamLengthInVehicles="0" maxJamLengthInMeters="0.00" jamLengthInVehiclesSum="0" jamLengthInMetersSum="0.00" meanHaltingDuration="0.00" maxHaltingDuration="0.00" haltingDurationSum="0.00" meanIntervalHaltingDuration="0.00" maxIntervalHaltingDuration="0.00" intervalHaltingDurationSum="0.00" startedHalts="0.00" meanVehicleNumber="18.50" maxVehicleNumber="22" />
   <interval begin="180.00" end="240.00" id="mainline_up_0_1" sampledSeconds="736.52" nVehEntered="22" nVehLeft="24" nVehSeen="34" meanSpeed="18.33" meanTimeLoss="1.73" meanOccupancy="8.75" maxOccupancy="10.71" meanMaxJamLengthInVehicles="0.00" meanMaxJamLengthInMeters="0.00" maxJamLengthInVehicles="0" maxJamLengthInMeters="0.00" jamLengthInVehiclesSum="0" jamLengthInMetersSum="0.00" meanHaltingDuration="0.00" maxHaltingDuration="0.00" haltingDurationSum="0.00" meanIntervalHaltingDuration="0.00" maxIntervalHaltingDuration="0.00" intervalHaltingDurationSum="0.00" startedHalts="0.00" meanVehicleNumber="12.62" maxVehicleNumber="15" />
   <interval begin="180.00" end="240.00" id="mainline_up_1_1" sampledSeconds="945.47" nVehEntered="33" nVehLeft="31" nVehSeen="47" meanSpeed="20.30" meanTimeLoss="1.42" meanOccupancy="11.14" maxOccupancy="12.86" meanMaxJamLengthInVehicles="0.00" meanMaxJamLengthInMeters="0.00" maxJamLengthInVehicles="0" maxJamLengthInMeters="0.00" jamLengthInVehiclesSum="0" jamLengthInMetersSum="0.00" meanHaltingDuration="0.00" maxHaltingDuration="0.00" haltingDurationSum="0.00" meanIntervalHaltingDuration="0.00" maxIntervalHaltingDuration="0.00" intervalHaltingDurationSum="0.00" startedHalts="0.00" meanVehicleNumber="16.22" maxVehicleNumber="19" />
   <interval begin="180.00" end="240.00" id="mainline_up_2_1" sampledSeconds="1101.30" nVehEntered="34" nVehLeft="36" nVehSeen="54" meanSpeed="21.34" meanTimeLoss="1.50" meanOccupancy="12.99" maxOccupancy="15.00" meanMaxJamLengthInVehicles="0.00" meanMaxJamLengthInMeters="0.00" maxJamLengthInVehicles="0" maxJamLengthInMeters="0.00" jamLengthInVehiclesSum="0" jamLengthInMetersSum="0.00" meanHaltingDuration="0.00" maxHaltingDuration="0.00" haltingDurationSum="0.00" meanIntervalHaltingDuration="0.00" maxIntervalHaltingDuration="0.00" intervalHaltingDurationSum="0.00" startedHalts="0.00" meanVehicleNumber="18.93" maxVehicleNumber="21" />
   <interval begin="180.00" end="240.00" id="mainline_up_0_2" sampledSeconds="724.71" nVehEntered="20" nVehLeft="21" nVehSeen="34" meanSpeed="18.08" meanTimeLoss="1.52" meanOccupancy="7.55" maxOccupancy="8.79" meanMaxJamLengthInVehicles="0.00" meanMaxJamLengthInMeters="0.00" maxJamLengthInVehicles="0" maxJamLengthInMeters="0.00" jamLengthInVehiclesSum="0" jamLengthInMetersSum="0.00" meanHaltingDuration="0.00" maxHaltingDuration="0.00" haltingDurationSum="0.00" meanIntervalHaltingDuration="0.00" maxIntervalHaltingDuration="0.00" intervalHaltingDurationSum="0.00" startedHalts="0.00" meanVehicleNumber="12.35" maxVehicleNumber="14" />
   <interval begin="180.00" end="240.00" id="mainline_up_1_2" sampledSeconds="1150.52" nVehEntered="38" nVehLeft="33" nVehSeen="52" meanSpeed="19.59" meanTimeLoss="2.54" meanOccupancy="12.00" maxOccupancy="14.15" meanMaxJamLengthInVehicles="0.00" meanMaxJamLengthInMeters="0.00" maxJamLengthInVehicles="0" maxJamLengthInMeters="0.00" jamLengthInVehiclesSum="0" jamLengthInMetersSum="0.00" meanHaltingDuration="0.00" maxHaltingDuration="0.00" haltingDurationSum="0.00" meanIntervalHaltingDuration="0.00" maxIntervalHaltingDuration="0.00" intervalHaltingDurationSum="0.00" startedHalts="0.00" meanVehicleNumber="19.67" maxVehicleNumber="23" />
   <interval begin="180.00" end="240.00" id="mainline_up_2_2" sampledSeconds="1383.28" nVehEntered="39" nVehLeft="37" nVehSeen="59" meanSpeed="20.38" meanTimeLoss="2.86" meanOccupancy="14.40" maxOccupancy="16.33" meanMaxJamLengthInVehicles="0.00" meanMaxJamLengthInMeters="0.00" maxJamLengthInVehicles="0" maxJamLengthInMeters="0.00" jamLengthInVehiclesSum="0" jamLengthInMetersSum="0.00" meanHaltingDuration="0.00" maxHaltingDuration="0.00" haltingDurationSum="0.00" meanIntervalHaltingDuration="0.00" maxIntervalHaltingDuration="0.00" intervalHaltingDurationSum="0.00" startedHalts="0.00" meanVehicleNumber="23.58" maxVehicleNumber="26" />
    <interval begin="240.00" end="300.00" id="ramp_eval_0_0" nVehContrib="20" flow="1200.00" occupancy="17.31" speed="9.65" length="5.00" nVehEntered="20"/>
    <interval begin="240.00" end="300.00" id="ramp_eval_2_0" nVehContrib="19" flow="1140.00" occupancy="17.21" speed="8.89" length="5.00" nVehEntered="18"/>
   <interval begin="240.00" end="300.00" id="mainline_up_0_0" sampledSeconds="850.42" nVehEntered="30" nVehLeft="30" nVehSeen="44" meanSpeed="17.92" meanTimeLoss="2.90" meanOccupancy="10.06" maxOccupancy="11.43" meanMaxJamLengthInVehicles="0.00" meanMaxJamLengthInMeters="0.00" maxJamLengthInVehicles="0" maxJamLengthInMeters="0.00" jamLengthInVehiclesSum="0" jamLengthInMetersSum="0.00" meanHaltingDuration="0.00" maxHaltingDuration="0.00" haltingDurationSum="0.00" meanIntervalHaltingDuration="0.00" maxIntervalHaltingDuration="0.00" intervalHaltingDurationSum="0.00" startedHalts="0.00" meanVehicleNumber="14.60" maxVehicleNumber="17" />
   <interval begin="240.00" end="300.00" id="mainline_up_1_0" sampledSeconds="877.53" nVehEntered="38" nVehLeft="40" nVehSeen="55" meanSpeed="18.44" meanTimeLoss="2.40" meanOccupancy="10.36" maxOccupancy="12.14" meanMaxJamLengthInVehicles="0.00" meanMaxJamLengthInMeters="0.00" maxJamLengthInVehicles="0" maxJamLengthInMeters="0.00" jamLengthInVehiclesSum="0" jamLengthInMetersSum="0.00" meanHaltingDuration="0.00" maxHaltingDuration="0.00" haltingDurationSum="0.00" meanIntervalHaltingDuration="0.00" maxIntervalHaltingDuration="0.00" intervalHaltingDurationSum="0.00" startedHalts="0.00" meanVehicleNumber="14.97" maxVehicleNumber="18" />
   <interval begin="240.00" end="300.00" id="mainline_up_2_0" sampledSeconds="1089.09" nVehEntered="38" nVehLeft="39" nVehSeen="59" meanSpeed="20.02" meanTimeLoss="2.43" meanOccupancy="12.80" maxOccupancy="15.00" meanMaxJamLengthInVehicles="0.00" meanMaxJamLengthInMeters="0.00" maxJamLengthInVehicles="0" maxJamLengthInMeters="0.00" jamLengthInVehiclesSum="0" jamLengthInMetersSum="0.00" meanHaltingDuration="0.00" maxHaltingDuration="0.00" haltingDurationSum="0.00" meanIntervalHaltingDuration="0.00" maxIntervalHaltingDuration="0.00" intervalHaltingDurationSum="0.00" startedHalts="0.00" meanVehicleNumber="18.58" maxVehicleNumber="21" />
   <interval begin="240.00" end="300.00" id="mainline_up_0_1" sampledSeconds="708.28" nVehEntered="20" nVehLeft="20" nVehSeen="30" meanSpeed="18.52" meanTimeLoss="1.67" meanOccupancy="8.41" maxOccupancy="10.71" meanMaxJamLengthInVehicles="0.00" meanMaxJamLengthInMeters="0.00" maxJamLengthInVehicles="0" maxJamLengthInMeters="0.00" jamLengthInVehiclesSum="0" jamLengthInMetersSum="0.00" meanHaltingDuration="0.00" maxHaltingDuration="0.00" haltingDurationSum="0.00" meanIntervalHaltingDuration="0.00" maxIntervalHaltingDuration="0.00" intervalHaltingDurationSum="0.00" startedHalts="0.00" meanVehicleNumber="12.10" maxVehicleNumber="15" />
   <interval begin="240.00" end="300.00" id="mainline_up_1_1" sampledSeconds="956.46" nVehEntered="35" nVehLeft="38" nVehSeen="51" meanSpeed="19.46" meanTimeLoss="2.25" meanOccupancy="11.26" maxOccupancy="14.29" meanMaxJamLengthInVehicles="0.00" meanMaxJamLengthInMeters="0.00" maxJamLengthInVehicles="0" maxJamLengthInMeters="0.00" jamLengthInVehiclesSum="0" jamLengthInMetersSum="0.00" meanHaltingDuration="0.00" maxHaltingDuration="0.00" haltingDurationSum="0.00" meanIntervalHaltingDuration="0.00" maxIntervalHaltingDuration="0.00" intervalHaltingDurationSum="0.00" startedHalts="0.00" meanVehicleNumber="16.47" maxVehicleNumber="21" />
   <interval begin="240.00" end="300.00" id="mainline_up_2_1" sampledSeconds="1142.39" nVehEntered="41" nVehLeft="40" nVehSeen="59" meanSpeed="20.90" meanTimeLoss="2.00" meanOccupancy="13.49" maxOccupancy="15.00" meanMaxJamLengthInVehicles="0.00" meanMaxJamLengthInMeters="0.00" maxJamLengthInVehicles="0" maxJamLengthInMeters="0.00" jamLengthInVehiclesSum="0" jamLengthInMetersSum="0.00" meanHaltingDuration="0.00" maxHaltingDuration="0.00" haltingDurationSum="0.00" meanIntervalHaltingDuration="0.00" maxIntervalHaltingDuration="0.00" intervalHaltingDurationSum="0.00" startedHalts="0.00" meanVehicleNumber="19.62" maxVehicleNumber="22" />