<?xml version="1.0" encoding="UTF-8"?>

<!-- generated on 02/22/19 17:27:32 by Eclipse SUMO Version 1.0.1
<configuration xmlns:xsi="http://www.w3.org/2001/XMLSchema-instance" xsi:noNamespaceSchemaLocation="http://sumo.dlr.de/xsd/sumoConfiguration.xsd">

    <input>
        <net-file value="./project/ramp.net.xml"/>
        <route-files value="./project/ramp.rou.xml"/>
        <additional-files value="./project/ramp.add.xml"/>
    </input>

    <time>
        <begin value="0"/>
    </time>

    <report>
        <verbose value="true"/>
        <no-step-log value="true"/>
    </report>

    <traci_server>
        <remote-port value="60298"/>
    </traci_server>

    <random_number>
        <seed value="992901726"/>
    </random_number>

    <gui_only>
        <quit-on-end value="true"/>
        <start value="true"/>
    </gui_only>

</configuration>
-->

<detector xmlns:xsi="http://www.w3.org/2001/XMLSchema-instance" xsi:noNamespaceSchemaLocation="http://sumo.dlr.de/xsd/det_e1_file.xsd">
    <interval begin="0.00" end="60.00" id="ramp_eval_0_0" nVehContrib="0" flow="0.00" occupancy="0.00" speed="-1.00" length="-1.00" nVehEntered="0"/>
    <interval begin="0.00" end="60.00" id="ramp_eval_2_0" nVehContrib="0" flow="0.00" occupancy="0.00" speed="-1.00" length="-1.00" nVehEntered="0"/>
   <interval begin="0.00" end="60.00" id="mainline_up_0_0" sampledSeconds="426.72" nVehEntered="21" nVehLeft="11" nVehSeen="21" meanSpeed="18.82" meanTimeLoss="2.17" meanOccupancy="5.11" maxOccupancy="8.92" meanMaxJamLengthInVehicles="0.00" meanMaxJamLengthInMeters="0.00" maxJamLengthInVehicles="0" maxJamLengthInMeters="0.00" jamLengthInVehiclesSum="0" jamLengthInMetersSum="0.00" meanHaltingDuration="0.00" maxHaltingDuration="0.00" haltingDurationSum="0.00" meanIntervalHaltingDuration="0.00" maxIntervalHaltingDuration="0.00" intervalHaltingDurationSum="0.00" startedHalts="0.00" meanVehicleNumber="7.30" maxVehicleNumber="13" />
   <interval begin="0.00" end="60.00" id="mainline_up_1_0" sampledSeconds="401.03" nVehEntered="28" nVehLeft="13" nVehSeen="28" meanSpeed="19.33" meanTimeLoss="1.77" meanOccupancy="4.81" maxOccupancy="10.71" meanMaxJamLengthInVehicles="0.00" meanMaxJamLengthInMeters="0.00" maxJamLengthInVehicles="0" maxJamLengthInMeters="0.00" jamLengthInVehiclesSum="0" jamLengthInMetersSum="0.00" meanHaltingDuration="0.00" maxHaltingDuration="0.00" haltingDurationSum="0.00" meanIntervalHaltingDuration="0.00" maxIntervalHaltingDuration="0.00" intervalHaltingDurationSum="0.00" startedHalts="0.00" meanVehicleNumber="6.88" maxVehicleNumber="15" />
   <interval begin="0.00" end="60.00" id="mainline_up_2_0" sampledSeconds="364.96" nVehEntered="25" nVehLeft="8" nVehSeen="25" meanSpeed="19.89" meanTimeLoss="1.82" meanOccupancy="4.37" maxOccupancy="12.14" meanMaxJamLengthInVehicles="0.00" meanMaxJamLengthInMeters="0.00" maxJamLengthInVehicles="0" maxJamLengthInMeters="0.00" jamLengthInVehiclesSum="0" jamLengthInMetersSum="0.00" meanHaltingDuration="0.00" maxHaltingDuration="0.00" haltingDurationSum="0.00" meanIntervalHaltingDuration="0.00" maxIntervalHaltingDuration="0.00" intervalHaltingDurationSum="0.00" startedHalts="0.00" meanVehicleNumber="6.28" maxVehicleNumber="18" />
   <interval begin="0.00" end="60.00" id="mainline_up_0_1" sampledSeconds="52.05" nVehEntered="6" nVehLeft="0" nVehSeen="6" meanSpeed="21.37" meanTimeLoss="0.16" meanOccupancy="0.63" maxOccupancy="4.29" meanMaxJamLengthInVehicles="0.00" meanMaxJamLengthInMeters="0.00" maxJamLengthInVehicles="0" maxJamLengthInMeters="0.00" jamLengthInVehiclesSum="0" jamLengthInMetersSum="0.00" meanHaltingDuration="0.00" maxHaltingDuration="0.00" haltingDurationSum="0.00" meanIntervalHaltingDuration="0.00" maxIntervalHaltingDuration="0.00" intervalHaltingDurationSum="0.00" startedHalts="0.00" meanVehicleNumber="0.90" maxVehicleNumber="6" />
   <interval begin="0.00" end="60.00" id="mainline_up_1_1" sampledSeconds="44.14" nVehEntered="4" nVehLeft="0" nVehSeen="4" meanSpeed="22.23" meanTimeLoss="0.20" meanOccupancy="0.54" maxOccupancy="2.86" meanMaxJamLengthInVehicles="0.00" meanMaxJamLengthInMeters="0.00" maxJamLengthInVehicles="0" maxJamLengthInMeters="0.00" jamLengthInVehiclesSum="0" jamLengthInMetersSum="0.00" meanHaltingDuration="0.00" maxHaltingDuration="0.00" haltingDurationSum="0.00" meanIntervalHaltingDuration="0.00" maxIntervalHaltingDuration="0.00" intervalHaltingDurationSum="0.00" startedHalts="0.00" meanVehicleNumber="0.77" maxVehicleNumber="4" />
   <interval begin="0.00" end="60.00" id="mainline_up_2_1" sampledSeconds="35.78" nVehEntered="4" nVehLeft="0" nVehSeen="4" meanSpeed="25.91" meanTimeLoss="0.16" meanOccupancy="0.44" maxOccupancy="2.86" meanMaxJamLengthInVehicles="0.00" meanMaxJamLengthInMeters="0.00" maxJamLengthInVehicles="0" maxJamLengthInMeters="0.00" jamLengthInVehiclesSum="0" jamLengthInMetersSum="0.00" meanHaltingDuration="0.00" maxHaltingDuration="0.00" haltingDurationSum="0.00" meanIntervalHaltingDuration="0.00" maxIntervalHaltingDuration="0.00" intervalHaltingDurationSum="0.00" startedHalts="0.00" meanVehicleNumber="0.63" maxVehicleNumber="4" />
   <interval begin="0.00" end="60.00" id="mainline_up_0_2" sampledSeconds="0.00" nVehEntered="0" nVehLeft="0" nVehSeen="0" meanSpeed="-1.00" meanTimeLoss="-1.00" meanOccupancy="0.00" maxOccupancy="0.00" meanMaxJamLengthInVehicles="0.00" meanMaxJamLengthInMeters="0.00" maxJamLengthInVehicles="0" maxJamLengthInMeters="0.00" jamLengthInVehiclesSum="0" jamLengthInMetersSum="0.00" meanHaltingDuration="0.00" maxHaltingDuration="0.00" haltingDurationSum="0.00" meanIntervalHaltingDuration="0.00" maxIntervalHaltingDuration="0.00" intervalHaltingDurationSum="0.00" startedHalts="0.00" meanVehicleNumber="0.00" maxVehicleNumber="0" />
   <interval begin="0.00" end="60.00" id="mainline_up_1_2" sampledSeconds="0.00" nVehEntered="0" nVehLeft="0" nVehSeen="0" meanSpeed="-1.00" meanTimeLoss="-1.00" meanOccupancy="0.00" maxOccupancy="0.00" meanMaxJamLengthInVehicles="0.00" meanMaxJamLengthInMeters="0.00" maxJamLengthInVehicles="0" maxJamLengthInMeters="0.00" jamLengthInVehiclesSum="0" jamLengthInMetersSum="0.00" meanHaltingDuration="0.00" maxHaltingDuration="0.00" haltingDurationSum="0.00" meanIntervalHaltingDuration="0.00" maxIntervalHaltingDuration="0.00" intervalHaltingDurationSum="0.00" startedHalts="0.00" meanVehicleNumber="0.00" maxVehicleNumber="0" />
   <interval begin="0.00" end="60.00" id="mainline_up_2_2" sampledSeconds="0.00" nVehEntered="0" nVehLeft="0" nVehSeen="0" meanSpeed="-1.00" meanTimeLoss="-1.00" meanOccupancy="0.00" maxOccupancy="0.00" meanMaxJamLengthInVehicles="0.00" meanMaxJamLengthInMeters="0.00" maxJamLengthInVehicles="0" maxJamLengthInMeters="0.00" jamLengthInVehiclesSum="0" jamLengthInMetersSum="0.00" meanHaltingDuration="0.00" maxHaltingDuration="0.00" haltingDurationSum="0.00" meanIntervalHaltingDuration="0.00" maxIntervalHaltingDuration="0.00" intervalHaltingDurationSum="0.00" startedHalts="0.00" meanVehicleNumber="0.00" maxVehicleNumber="0" />
    <interval begin="60.00" end="120.00" id="ramp_eval_0_0" nVehContrib="22" flow="1320.00" occupancy="18.86" speed="9.80" length="5.00" nVehEntered="22"/>
    <interval begin="60.00" end="120.00" id="ramp_eval_2_0" nVehContrib="0" flow="0.00" occupancy="0.00" speed="-1.00" length="-1.00" nVehEntered="0"/>
   <interval begin="60.00" end="120.00" id="mainline_up_0_0" sampledSeconds="707.12" nVehEntered="31" nVehLeft="31" nVehSeen="41" meanSpeed="17.63" meanTimeLoss="2.87" meanOccupancy="8.38" maxOccupancy="10.71" meanMaxJamLengthInVehicles="0.00" meanMaxJamLengthInMeters="0.00" maxJamLengthInVehicles="0" maxJamLengthInMeters="0.00" jamLengthInVehiclesSum="0" jamLengthInMetersSum="0.00" meanHaltingDuration="0.00" maxHaltingDuration="0.00" haltingDurationSum="0.00" meanIntervalHaltingDuration="0.00" maxIntervalHaltingDuration="0.00" intervalHaltingDurationSum="0.00" startedHalts="0.00" meanVehicleNumber="12.15" maxVehicleNumber="16" />
   <interval begin="60.00" end="120.00" id="mainline_up_1_0" sampledSeconds="983.08" nVehEntered="43" nVehLeft="38" nVehSeen="58" meanSpeed="18.80" meanTimeLoss="2.24" meanOccupancy="11.65" maxOccupancy="14.96" meanMaxJamLengthInVehicles="0.00" meanMaxJamLengthInMeters="0.00" maxJamLengthInVehicles="0" maxJamLengthInMeters="0.00" jamLengthInVehiclesSum="0" jamLengthInMetersSum="0.00" meanHaltingDuration="0.00" maxHaltingDuration="0.00" haltingDurationSum="0.00" meanIntervalHaltingDuration="0.00" maxIntervalHaltingDuration="0.00" intervalHaltingDurationSum="0.00" startedHalts="0.00" meanVehicleNumber="16.80" maxVehicleNumber="22" />
   <interval begin="60.00" end="120.00" id="mainline_up_2_0" sampledSeconds="1068.37" nVehEntered="34" nVehLeft="34" nVehSeen="51" meanSpeed="20.12" meanTimeLoss="2.42" meanOccupancy="12.55" maxOccupancy="13.97" meanMaxJamLengthInVehicles="0.00" meanMaxJamLengthInMeters="0.00" maxJamLengthInVehicles="0" maxJamLengthInMeters="0.00" jamLengthInVehiclesSum="0" jamLengthInMetersSum="0.00" meanHaltingDuration="0.00" maxHaltingDuration="0.00" haltingDurationSum="0.00" meanIntervalHaltingDuration="0.00" maxIntervalHaltingDuration="0.00" intervalHaltingDurationSum="0.00" startedHalts="0.00" meanVehicleNumber="18.22" maxVehicleNumber="20" />
   <interval begin="60.00" end="120.00" id="mainline_up_0_1" sampledSeconds="636.00" nVehEntered="25" nVehLeft="20" nVehSeen="31" meanSpeed="19.36" meanTimeLoss="1.14" meanOccupancy="7.54" maxOccupancy="9.29" meanMaxJamLengthInVehicles="0.00" meanMaxJamLengthInMeters="0.00" maxJamLengthInVehicles="0" maxJamLengthInMeters="0.00" jamLengthInVehiclesSum="0" jamLengthInMetersSum="0.00" meanHaltingDuration="0.00" maxHaltingDuration="0.00" haltingDurationSum="0.00" meanIntervalHaltingDuration="0.00" maxIntervalHaltingDuration="0.00" intervalHaltingDurationSum="0.00" startedHalts="0.00" meanVehicleNumber="10.90" maxVehicleNumber="14" />
   <interval begin="60.00" end="120.00" id="mainline_up_1_1" sampledSeconds="629.35" nVehEntered="32" nVehLeft="22" nVehSeen="36" meanSpeed="20.38" meanTimeLoss="1.16" meanOccupancy="7.49" maxOccupancy="11.43" meanMaxJamLengthInVehicles="0.00" meanMaxJamLengthInMeters="0.00" maxJamLengthInVehicles="0" maxJamLengthInMeters="0.00" jamLengthInVehiclesSum="0" jamLengthInMetersSum="0.00" meanHaltingDuration="0.00" maxHaltingDuration="0.00" haltingDurationSum="0.00" meanIntervalHaltingDuration="0.00" maxIntervalHaltingDuration="0.00" intervalHaltingDurationSum="0.00" startedHalts="0.00" meanVehicleNumber="10.80" maxVehicleNumber="17" />
   <interval begin="60.00" end="120.00" id="mainline_up_2_1" sampledSeconds="769.46" nVehEntered="33" nVehLeft="18" nVehSeen="37" meanSpeed="21.37" meanTimeLoss="1.66" meanOccupancy="9.21" maxOccupancy="14.29" meanMaxJamLengthInVehicles="0.00" meanMaxJamLengthInMeters="0.00" maxJamLengthInVehicles="0" maxJamLengthInMeters="0.00" jamLengthInVehiclesSum="0" jamLengthInMetersSum="0.00" meanHaltingDuration="0.00" maxHaltingDuration="0.00" haltingDurationSum="0.00" meanIntervalHaltingDuration="0.00" maxIntervalHaltingDuration="0.00" intervalHaltingDurationSum="0.00" startedHalts="0.00" meanVehicleNumber="13.22" maxVehicleNumber="21" />
   <interval begin="60.00" end="120.00" id="mainline_up_0_2" sampledSeconds="342.23" nVehEntered="18" nVehLeft="6" nVehSeen="18" meanSpeed="20.59" meanTimeLoss="0.48" meanOccupancy="3.63" maxOccupancy="7.54" meanMaxJamLengthInVehicles="0.00" meanMaxJamLengthInMeters="0.00" maxJamLengthInVehicles="0" maxJamLengthInMeters="0.00" jamLengthInVehiclesSum="0" jamLengthInMetersSum="0.00" meanHaltingDuration="0.00" maxHaltingDuration="0.00" haltingDurationSum="0.00" meanIntervalHaltingDuration="0.00" maxIntervalHaltingDuration="0.00" intervalHaltingDurationSum="0.00" startedHalts="0.00" meanVehicleNumber="5.87" maxVehicleNumber="13" />
   <interval begin="60.00" end="120.00" id="mainline_up_1_2" sampledSeconds="271.65" nVehEntered="18" nVehLeft="5" nVehSeen="18" meanSpeed="21.61" meanTimeLoss="0.59" meanOccupancy="2.89" maxOccupancy="8.79" meanMaxJamLengthInVehicles="0.00" meanMaxJamLengthInMeters="0.00" maxJamLengthInVehicles="0" maxJamLengthInMeters="0.00" jamLengthInVehiclesSum="0" jamLengthInMetersSum="0.00" meanHaltingDuration="0.00" maxHaltingDuration="0.00" haltingDurationSum="0.00" meanIntervalHaltingDuration="0.00" maxIntervalHaltingDuration="0.00" intervalHaltingDurationSum="0.00" startedHalts="0.00" meanVehicleNumber="4.65" maxVehicleNumber="14" />
   <interval begin="60.00" end="120.00" id="mainline_up_2_2" sampledSeconds="167.20" nVehEntered="14" nVehLeft="3" nVehSeen="14" meanSpeed="22.54" meanTimeLoss="0.61" meanOccupancy="1.81" maxOccupancy="6.91" meanMaxJamLengthInVehicles="0.00" meanMaxJamLengthInMeters="0.00" maxJamLengthInVehicles="0" maxJamLengthInMeters="0.00" jamLengthInVehiclesSum="0" jamLengthInMetersSum="0.00" meanHaltingDuration="0.00" maxHaltingDuration="0.00" haltingDurationSum="0.00" meanIntervalHaltingDuration="0.00" maxIntervalHaltingDuration="0.00" intervalHaltingDurationSum="0.00" startedHalts="0.00" meanVehicleNumber="2.90" maxVehicleNumber="11" />
    <interval begin="120.00" end="180.00" id="ramp_eval_0_0" nVehContrib="19" flow="1140.00" occupancy="16.18" speed="9.86" length="5.00" nVehEntered="19"/>
    <interval begin="120.00" end="180.00" id="ramp_eval_2_0" nVehContrib="14" flow="840.00" occupancy="13.07" speed="8.95" length="5.00" nVehEntered="14"/>
   <interval begin="120.00" end="180.00" id="mainline_up_0_0" sampledSeconds="737.55" nVehEntered="32" nVehLeft="29" nVehSeen="42" meanSpeed="17.66" meanTimeLoss="2.79" meanOccupancy="8.74" maxOccupancy="10.71" meanMaxJamLengthInVehicles="0.00" meanMaxJamLengthInMeters="0.00" maxJamLengthInVehicles="0" maxJamLengthInMeters="0.00" jamLengthInVehiclesSum="0" jamLengthInMetersSum="0.00" meanHaltingDuration="0.00" maxHaltingDuration="0.00" haltingDurationSum="0.00" meanIntervalHaltingDuration="0.00" maxIntervalHaltingDuration="0.00" intervalHaltingDurationSum="0.00" startedHalts="0.00" meanVehicleNumber="12.68" maxVehicleNumber="16" />
   <interval begin="120.00" end="180.00" id="mainline_up_1_0" sampledSeconds="1034.14" nVehEntered="39" nVehLeft="43" nVehSeen="59" meanSpeed="17.98" meanTimeLoss="3.14" meanOccupancy="12.20" maxOccupancy="16.63" meanMaxJamLengthInVehicles="0.00" meanMaxJamLengthInMeters="0.00" maxJamLengthInVehicles="0" maxJamLengthInMeters="0.00" jamLengthInVehiclesSum="0" jamLengthInMetersSum="0.00" meanHaltingDuration="0.00" maxHaltingDuration="0.00" haltingDurationSum="0.00" meanIntervalHaltingDuration="0.00" maxIntervalHaltingDuration="0.00" intervalHaltingDurationSum="0.00" startedHalts="0.00" meanVehicleNumber="17.63" maxVehicleNumber="24" />
   <interval begin="120.00" end="180.00" id="mainline_up_2_0" sampledSeconds="1171.04" nVehEntered="38" nVehLeft="37" nVehSeen="55" meanSpeed="19.14" meanTimeLoss="3.35" meanOccupancy="13.79" maxOccupancy="16.12" meanMaxJamLengthInVehicles="0.00" meanMaxJamLengthInMeters="0.00" maxJamLengthInVehicles="0" maxJamLengthInMeters="0.00" jamLengthInVehiclesSum="0" jamLengthInMetersSum="0.00" meanHaltingDuration="0.00" maxHaltingDuration="0.00" haltingDurationSum="0.00" meanIntervalHaltingDuration="0.00" maxIntervalHaltingDuration="0.00" intervalHaltingDurationSum="0.00" startedHalts="0.00" meanVehicleNumber="20.07" maxVehicleNumber="23" />
   <interval begin="120.00" end="180.00" id="mainline_up_0_1" sampledSeconds="572.44" nVehEntered="18" nVehLeft="19" nVehSeen="29" meanSpeed="18.41" meanTimeLoss="2.26" meanOccupancy="6.77" maxOccupancy="7.86" meanMaxJamLengthInVehicles="0.00" meanMaxJamLengthInMeters="0.00" maxJamLengthInVehicles="0" maxJamLengthInMeters="0.00" jamLengthInVehiclesSum="0" jamLengthInMetersSum="0.00" meanHaltingDuration="0.00" maxHaltingDuration="0.00" haltingDurationSum="0.00" meanIntervalHaltingDuration="0.00" maxIntervalHaltingDuration="0.00" intervalHaltingDurationSum="0.00" startedHalts="0.00" meanVehicleNumber="9.80" maxVehicleNumber="11" />
   <interval begin="120.00" end="180.00" id="mainline_up_1_1" sampledSeconds="950.08" nVehEntered="38" nVehLeft="35" nVehSeen="52" meanSpeed="19.14" meanTimeLoss="2.06" meanOccupancy="11.22" maxOccupancy="12.86" meanMaxJamLengthInVehicles="0.00" meanMaxJamLengthInMeters="0.00" maxJamLengthInVehicles="0" maxJamLengthInMeters="0.00" jamLengthInVehiclesSum="0" jamLengthInMetersSum="0.00" meanHaltingDuration="0.00" maxHaltingDuration="0.00" haltingDurationSum="0.00" meanIntervalHaltingDuration="0.00" maxIntervalHaltingDuration="0.00" intervalHaltingDurationSum="0.00" startedHalts="0.00" meanVehicleNumber="16.25" maxVehicleNumber="19" />
   <interval begin="120.00" end="180.00" id="mainline_up_2_1" sampledSeconds="1135.64" nVehEntered="37" nVehLeft="37" nVehSeen="56" meanSpeed="20.57" meanTimeLoss="2.08" meanOccupancy="13.45" maxOccupancy="16.43" meanMaxJamLengthInVehicles="0.00" meanMaxJamLengthInMeters="0.00" maxJamLengthInVehicles="0" maxJamLengthInMeters="0.00" jamLengthInVehiclesSum="0" jamLengthInMetersSum="0.00" meanHaltingDuration="0.00" maxHaltingDuration="0.00" haltingDurationSum="0.00" meanIntervalHaltingDuration="0.00" maxIntervalHaltingDuration="0.00" intervalHaltingDurationSum="0.00" startedHalts="0.00" meanVehicleNumber="19.45" maxVehicleNumber="24" />
   <interval begin="120.00" end="180.00" id="mainline_up_0_2" sampledSeconds="656.62" nVehEntered="21" nVehLeft="26" nVehSeen="33" meanSpeed="19.10" meanTimeLoss="0.94" meanOccupancy="6.80" maxOccupancy="8.79" meanMaxJamLengthInVehicles="0.00" meanMaxJamLengthInMeters="0.00" maxJamLengthInVehicles="0" maxJamLengthInMeters="0.00" jamLengthInVehiclesSum="0" jamLengthInMetersSum="0.00" meanHaltingDuration="0.00" maxHaltingDuration="0.00" haltingDurationSum="0.00" meanIntervalHaltingDuration="0.00" maxIntervalHaltingDuration="0.00" intervalHaltingDurationSum="0.00" startedHalts="0.00" meanVehicleNumber="11.22" maxVehicleNumber="15" />
   <interval begin="120.00" end="180.00" id="mainline_up_1_2" sampledSeconds="968.81" nVehEntered="40" nVehLeft="36" nVehSeen="53" meanSpeed="20.26" meanTimeLoss="1.42" meanOccupancy="10.09" maxOccupancy="13.19" meanMaxJamLengthInVehicles="0.00" meanMaxJamLengthInMeters="0.00" maxJamLengthInVehicles="0" maxJamLengthInMeters="0.00" jamLengthInVehiclesSum="0" jamLengthInMetersSum="0.00" meanHaltingDuration="0.00" maxHaltingDuration="0.00" haltingDurationSum="0.00" meanIntervalHaltingDuration="0.00" maxIntervalHaltingDuration="0.00" intervalHaltingDurationSum="0.00" startedHalts="0.00" meanVehicleNumber="16.52" maxVehicleNumber="22" />
   <interval begin="120.00" end="180.00" id="mainline_up_2_2" sampledSeconds="1061.93" nVehEntered="36" nVehLeft="25" nVehSeen="47" meanSpeed="21.55" meanTimeLoss="1.64" meanOccupancy="11.10" maxOccupancy="13.82" meanMaxJamLengthInVehicles="0.00" meanMaxJamLengthInMeters="0.00" maxJamLengthInVehicles="0" maxJamLengthInMeters="0.00" jamLengthInVehiclesSum="0" jamLengthInMetersSum="0.00" meanHaltingDuration="0.00" maxHaltingDuration="0.00" haltingDurationSum="0.00" meanIntervalHaltingDuration="0.00" maxIntervalHaltingDuration="0.00" intervalHaltingDurationSum="0.00" startedHalts="0.00" meanVehicleNumber="18.08" maxVehicleNumber="23" />
    <interval begin="180.00" end="240.00" id="ramp_eval_0_0" nVehContrib="18" flow="1080.00" occupancy="16.73" speed="9.03" length="5.00" nVehEntered="18"/>
    <interval begin="180.00" end="240.00" id="ramp_eval_2_0" nVehContrib="18" flow="1080.00" occupancy="15.93" speed="9.44" length="5.00" nVehEntered="18"/>
   <interval begin="180.00" end="240.00" id="mainline_up_0_0" sampledSeconds="835.49" nVehEntered="26" nVehLeft="25" nVehSeen="39" meanSpeed="17.37" meanTimeLoss="3.43" meanOccupancy="9.89" maxOccupancy="11.43" meanMaxJamLengthInVehicles="0.00" meanMaxJamLengthInMeters="0.00" maxJamLengthInVehicles="0" maxJamLengthInMeters="0.00" jamLengthInVehiclesSum="0" jamLengthInMetersSum="0.00" meanHaltingDuration="0.00" maxHaltingDuration="0.00" haltingDurationSum="0.00" meanIntervalHaltingDuration="0.00" maxIntervalHaltingDuration="0.00" intervalHaltingDurationSum="0.00" startedHalts="0.00" meanVehicleNumber="14.27" maxVehicleNumber="16" />
   <interval begin="180.00" end="240.00" id="mainline_up_1_0" sampledSeconds="977.11" nVehEntered="35" nVehLeft="36" nVehSeen="51" meanSpeed="18.97" meanTimeLoss="3.07" meanOccupancy="11.56" maxOccupancy="13.57" meanMaxJamLengthInVehicles="0.00" meanMaxJamLengthInMeters="0.00" maxJamLengthInVehicles="0" maxJamLengthInMeters="0.00" jamLengthInVehiclesSum="0" jamLengthInMetersSum="0.00" meanHaltingDuration="0.00" maxHaltingDuration="0.00" haltingDurationSum="0.00" meanIntervalHaltingDuration="0.00" maxIntervalHaltingDuration="0.00" intervalHaltingDurationSum="0.00" startedHalts="0.00" meanVehicleNumber="16.72" maxVehicleNumber="20" />
   <interval begin="180.00" end="240.00" id="mainline_up_2_0" sampledSeconds="1105.11" nVehEntered="36" nVehLeft="36" nVehSeen="54" meanSpeed="19.67" meanTimeLoss="3.18" meanOccupancy="13.00" maxOccupancy="15.00" meanMaxJamLengthInVehicles="0.00" meanMaxJamLengthInMeters="0.00" maxJamLengthInVehicles="0" maxJamLengthInMeters="0.00" jamLengthInVehiclesSum="0" jamLengthInMetersSum="0.00" meanHaltingDuration="0.00" maxHaltingDuration="0.00" haltingDurationSum="0.00" meanIntervalHaltingDuration="0.00" maxIntervalHaltingDuration="0.00" intervalHaltingDurationSum="0.00" startedHalts="0.00" meanVehicleNumber="18.95" maxVehicleNumber="21" />
   <interval begin="180.00" end="240.00" id="mainline_up_0_1" sampledSeconds="714.50" nVehEntered="24" nVehLeft="22" nVehSeen="34" meanSpeed="18.12" meanTimeLoss="2.10" meanOccupancy="8.45" maxOccupancy="10.00" meanMaxJamLengthInVehicles="0.00" meanMaxJamLengthInMeters="0.00" maxJamLengthInVehicles="0" maxJamLengthInMeters="0.00" jamLengthInVehiclesSum="0" jamLengthInMetersSum="0.00" meanHaltingDuration="0.00" maxHaltingDuration="0.00" haltingDurationSum="0.00" meanIntervalHaltingDuration="0.00" maxIntervalHaltingDuration="0.00" intervalHaltingDurationSum="0.00" startedHalts="0.00" meanVehicleNumber="12.18" maxVehicleNumber="14" />
   <interval begin="180.00" end="240.00" id="mainline_up_1_1" sampledSeconds="966.46" nVehEntered="31" nVehLeft="34" nVehSeen="48" meanSpeed="18.94" meanTimeLoss="2.98" meanOccupancy="11.40" maxOccupancy="13.57" meanMaxJamLengthInVehicles="0.00" meanMaxJamLengthInMeters="0.00" maxJamLengthInVehicles="0" maxJamLengthInMeters="0.00" jamLengthInVehiclesSum="0" jamLengthInMetersSum="0.00" meanHaltingDuration="0.00" maxHaltingDuration="0.00" haltingDurationSum="0.00" meanIntervalHaltingDuration="0.00" maxIntervalHaltingDuration="0.00" intervalHaltingDurationSum="0.00" startedHalts="0.00" meanVehicleNumber="16.52" maxVehicleNumber="20" />
   <interval begin="180.00" end="240.00" id="mainline_up_2_1" sampledSeconds="1201.00" nVehEntered="37" nVehLeft="33" nVehSeen="56" meanSpeed="19.55" meanTimeLoss="3.36" meanOccupancy="14.22" maxOccupancy="16.43" meanMaxJamLengthInVehicles="0.00" meanMaxJamLengthInMeters="0.00" maxJamLengthInVehicles="0" maxJamLengthInMeters="0.00" jamLengthInVehiclesSum="0" jamLengthInMetersSum="0.00" meanHaltingDuration="0.00" maxHaltingDuration="0.00" haltingDurationSum="0.00" meanIntervalHaltingDuration="0.00" maxIntervalHaltingDuration="0.00" intervalHaltingDurationSum="0.00" startedHalts="0.00" meanVehicleNumber="20.62" maxVehicleNumber="24" />
   <interval begin="180.00" end="240.00" id="mainline_up_0_2" sampledSeconds="673.34" nVehEntered="21" nVehLeft="17" nVehSeen="28" meanSpeed="18.63" meanTimeLoss="2.53" meanOccupancy="7.04" maxOccupancy="8.79" meanMaxJamLengthInVehicles="0.00" meanMaxJamLengthInMeters="0.00" maxJamLengthInVehicles="0" maxJamLengthInMeters="0.00" jamLengthInVehiclesSum="0" jamLengthInMetersSum="0.00" meanHaltingDuration="0.00" maxHaltingDuration="0.00" haltingDurationSum="0.00" meanIntervalHaltingDuration="0.00" maxIntervalHaltingDuration="0.00" intervalHaltingDurationSum="0.00" startedHalts="0.00" meanVehicleNumber="11.47" maxVehicleNumber="14" />
   <interval begin="180.00" end="240.00" id="mainline_up_1_2" sampledSeconds="1053.25" nVehEntered="36" nVehLeft="36" nVehSeen="53" meanSpeed="18.88" meanTimeLoss="2.40" meanOccupancy="10.96" maxOccupancy="12.56" meanMaxJamLengthInVehicles="0.00" meanMaxJamLengthInMeters="0.00" maxJamLengthInVehicles="0" maxJamLengthInMeters="0.00" jamLengthInVehiclesSum="0" jamLengthInMetersSum="0.00" meanHaltingDuration="0.00" maxHaltingDuration="0.00" haltingDurationSum="0.00" meanIntervalHaltingDuration="0.00" maxIntervalHaltingDuration="0.00" intervalHaltingDurationSum="0.00" startedHalts="0.00" meanVehicleNumber="18.03" maxVehicleNumber="21" />
   <interval begin="180.00" end="240.00" id="mainline_up_2_2" sampledSeconds="1279.69" nVehEntered="36" nVehLeft="37" nVehSeen="58" meanSpeed="20.83" meanTimeLoss="2.19" meanOccupancy="13.30" maxOccupancy="14.93" meanMaxJamLengthInVehicles="0.00" meanMaxJamLengthInMeters="0.00" maxJamLengthInVehicles="0" maxJamLengthInMeters="0.00" jamLengthInVehiclesSum="0" jamLengthInMetersSum="0.00" meanHaltingDuration="0.00" maxHaltingDuration="0.00" haltingDurationSum="0.00" meanIntervalHaltingDuration="0.00" maxIntervalHaltingDuration="0.00" intervalHaltingDurationSum="0.00" startedHalts="0.00" meanVehicleNumber="21.90" maxVehicleNumber="24" />
    <interval begin="240.00" end="300.00" id="ramp_eval_0_0" nVehContrib="20" flow="1200.00" occupancy="17.75" speed="9.43" length="5.00" nVehEntered="20"/>
    <interval begin="240.00" end="300.00" id="ramp_eval_2_0" nVehContrib="20" flow="1200.00" occupancy="18.58" speed="8.98" length="5.00" nVehEntered="20"/>
   <interval begin="240.00" end="300.00" id="mainline_up_0_0" sampledSeconds="833.13" nVehEntered="33" nVehLeft="32" nVehSeen="47" meanSpeed="17.30" meanTimeLoss="2.62" meanOccupancy="9.87" maxOccupancy="12.14" meanMaxJamLengthInVehicles="0.00" meanMaxJamLengthInMeters="0.00" maxJamLengthInVehicles="0" maxJamLengthInMeters="0.00" jamLengthInVehiclesSum="0" jamLengthInMetersSum="0.00" meanHaltingDuration="0.00" maxHaltingDuration="0.00" haltingDurationSum="0.00" meanIntervalHaltingDuration="0.00" maxIntervalHaltingDuration="0.00" intervalHaltingDurationSum="0.00" startedHalts="0.00" meanVehicleNumber="14.20" maxVehicleNumber="17" />
   <interval begin="240.00" end="300.00" id="mainline_up_1_0" sampledSeconds="994.48" nVehEntered="50" nVehLeft="48" nVehSeen="65" meanSpeed="18.59" meanTimeLoss="2.21" meanOccupancy="11.73" maxOccupancy="14.93" meanMaxJamLengthInVehicles="0.00" meanMaxJamLengthInMeters="0.00" maxJamLengthInVehicles="0" maxJamLengthInMeters="0.00" jamLengthInVehiclesSum="0" jamLengthInMetersSum="0.00" meanHaltingDuration="0.00" maxHaltingDuration="0.00" haltingDurationSum="0.00" meanIntervalHaltingDuration="0.00" maxIntervalHaltingDuration="0.00" intervalHaltingDurationSum="0.00" startedHalts="0.00" meanVehicleNumber="16.95" maxVehicleNumber="21" />
   <interval begin="240.00" end="300.00" id="mainline_up_2_0" sampledSeconds="1025.65" nVehEntered="40" nVehLeft="43" nVehSeen="58" meanSpeed="20.03" meanTimeLoss="2.12" meanOccupancy="12.06" maxOccupancy="15.00" meanMaxJamLengthInVehicles="0.00" meanMaxJamLengthInMeters="0.00" maxJamLengthInVehicles="0" maxJamLengthInMeters="0.00" jamLengthInVehiclesSum="0" jamLengthInMetersSum="0.00" meanHaltingDuration="0.00" maxHaltingDuration="0.00" haltingDurationSum="0.00" meanIntervalHaltingDuration="0.00" maxIntervalHaltingDuration="0.00" intervalHaltingDurationSum="0.00" startedHalts="0.00" meanVehicleNumber="17.63" maxVehicleNumber="21" />
   <interval begin="240.00" end="300.00" id="mainline_up_0_1" sampledSeconds="733.16" nVehEntered="26" nVehLeft="25" nVehSeen="38" meanSpeed="17.57" meanTimeLoss="2.53" meanOccupancy="8.70" maxOccupancy="11.43" meanMaxJamLengthInVehicles="0.00" meanMaxJamLengthInMeters="0.00" maxJamLengthInVehicles="0" maxJamLengthInMeters="0.00" jamLengthInVehiclesSum="0" jamLengthInMetersSum="0.00" meanHaltingDuration="0.00" maxHaltingDuration="0.00" haltingDurationSum="0.00" meanIntervalHaltingDuration="0.00" maxIntervalHaltingDuration="0.00" intervalHaltingDurationSum="0.00" startedHalts="0.00" meanVehicleNumber="12.52" maxVehicleNumber="16" />
   <interval begin="240.00" end="300.00" id="mainline_up_1_1" sampledSeconds="949.33" nVehEntered="39" nVehLeft="38" nVehSeen="53" meanSpeed="19.03" meanTimeLoss="2.38" meanOccupancy="11.24" maxOccupancy="14.29" meanMaxJamLengthInVehicles="0.00" meanMaxJamLengthInMeters="0.00" maxJamLengthInVehicles="0" maxJamLengthInMeters="0.00" jamLengthInVehiclesSum="0" jamLengthInMetersSum="0.00" meanHaltingDuration="0.00" maxHaltingDuration="0.00" haltingDurationSum="0.00" meanIntervalHaltingDuration="0.00" maxIntervalHaltingDuration="0.00" intervalHaltingDurationSum="0.00" startedHalts="0.00" meanVehicleNumber="16.28" maxVehicleNumber="20" />
   <interval begin="240.00" end="300.00" id="mainline_up_2_1" sampledSeconds="1190.83" nVehEntered="37" nVehLeft="40" nVehSeen="60" meanSpeed="20.57" meanTimeLoss="2.39" meanOccupancy="14.05" maxOccupancy="17.14" meanMaxJamLengthInVehicles="0.00" meanMaxJamLengthInMeters="0.00" maxJamLengthInVehicles="0" maxJamLengthInMeters="0.00" jamLengthInVehiclesSum="0" jamLengthInMetersSum="0.00" meanHaltingDuration="0.00" maxHaltingDuration="0.00" haltingDurationSum="0.00" meanIntervalHaltingDuration="0.00" maxIntervalHaltingDuration="0.00" intervalHaltingDurationSum="0.00" startedHalts="0.00" meanVehicleNumber="20.35" maxVehicleNumber="24" />